LAMMPS data file for polymer system

27000 atoms
26940 bonds

1 atom types
1 bond types

0.0 42.1940968663639 xlo xhi
0.0 42.1940968663639 ylo yhi
0.0 42.1940968663639 zlo zhi

Masses

1 5.65487

Atoms

1 1 1 26.389346 30.589443 31.656573
2 1 1 26.122463 30.344250 31.542319
3 1 1 26.019732 30.083297 31.285902
4 1 1 26.242787 29.775654 31.287486
5 1 1 26.225768 29.423247 31.146349
6 1 1 26.450646 29.220218 30.916982
7 1 1 26.789790 29.196440 30.747229
8 1 1 27.169098 29.196921 30.770136
9 1 1 27.265563 29.127441 31.131062
10 1 1 26.983288 29.154594 31.384011
11 1 1 26.861030 29.043985 31.726383
12 1 1 26.557089 28.943170 31.930970
13 1 1 26.667723 28.970806 32.293457
14 1 1 26.765690 29.305117 32.445242
15 1 1 27.070660 29.429206 32.255517
16 1 1 27.087790 29.748864 32.050760
17 1 1 26.846510 29.981109 31.871186
18 1 1 26.854484 30.157298 31.534595
19 1 1 27.021119 30.498551 31.547967
20 1 1 27.341439 30.627578 31.389389
21 1 1 27.642270 30.842352 31.301224
22 1 1 27.586996 31.097943 31.025510
23 1 1 27.451810 31.220859 30.692319
24 1 1 27.493391 31.242947 30.315247
25 1 1 27.784161 31.110718 30.109411
26 1 1 27.831537 31.082466 29.733436
27 1 1 27.647076 30.873216 29.475387
28 1 1 27.546652 30.953158 29.117722
29 1 1 27.718452 30.842817 28.797239
30 1 1 27.845152 30.484567 28.795248
31 1 1 27.668816 30.168983 28.912349
32 1 1 27.691822 29.887814 28.657762
33 1 1 27.420752 29.800066 28.406323
34 1 1 27.419445 29.489391 28.187509
35 1 1 27.163512 29.488096 27.906623
36 1 1 26.887157 29.692284 27.744342
37 1 1 26.853134 29.955834 27.472710
38 1 1 26.796308 30.185920 27.175674
39 1 1 26.522709 30.027263 26.965028
40 1 1 26.271416 30.045654 26.680575
41 1 1 25.999894 29.779876 26.686752
42 1 1 25.745545 29.571067 26.876765
43 1 1 25.519865 29.275304 26.799352
44 1 1 25.338122 29.254060 26.466308
45 1 1 25.424915 28.977992 26.220029
46 1 1 25.757196 28.794006 26.208257
47 1 1 25.886898 28.437650 26.184011
48 1 1 25.774784 28.082679 26.260338
49 1 1 25.929631 27.939818 26.576586
50 1 1 26.212215 28.103588 26.770818
51 1 1 26.555012 28.121150 26.607777
52 1 1 26.679979 28.136200 26.249229
53 1 1 26.772335 27.817339 26.064302
54 1 1 27.022752 27.552741 26.172373
55 1 1 27.309167 27.674598 26.390357
56 1 1 27.550705 27.391557 26.467474
57 1 1 27.918663 27.428157 26.555035
58 1 1 28.142871 27.724810 26.633315
59 1 1 27.973754 28.051718 26.538811
60 1 1 27.821739 28.345857 26.352334
61 1 1 27.859114 28.409942 25.979647
62 1 1 28.109215 28.346890 25.700588
63 1 1 28.197005 28.649793 25.488592
64 1 1 28.005698 28.718209 25.167467
65 1 1 27.656237 28.739563 25.019749
66 1 1 27.571180 28.931393 24.702942
67 1 1 27.286677 28.797648 24.489471
68 1 1 26.980689 28.863965 24.274126
69 1 1 26.914342 29.219265 24.156822
70 1 1 27.029068 29.501015 23.929106
71 1 1 26.866702 29.696353 23.646475
72 1 1 26.623075 29.678338 23.355405
73 1 1 26.392588 29.725317 23.056961
74 1 1 26.123733 29.551731 22.852060
75 1 1 25.911302 29.702745 22.575531
76 1 1 25.988685 29.998968 22.350445
77 1 1 26.351383 30.052211 22.250369
78 1 1 26.438338 29.749217 22.038158
79 1 1 26.550559 29.754662 21.675147
80 1 1 26.318199 29.659764 21.389835
81 1 1 26.212752 29.302126 21.463154
82 1 1 26.037997 28.967670 21.507882
83 1 1 26.145564 28.603213 21.507584
84 1 1 26.506467 28.542196 21.609692
85 1 1 26.744296 28.832855 21.667610
86 1 1 26.780377 29.147735 21.877250
87 1 1 26.730645 29.048349 22.240636
88 1 1 26.507544 28.750383 22.317067
89 1 1 26.286164 28.445507 22.267652
90 1 1 26.109557 28.111783 22.310529
91 1 1 26.295591 27.843362 22.116258
92 1 1 26.571741 27.601233 22.213802
93 1 1 26.820273 27.317505 22.167650
94 1 1 26.925555 27.102946 22.463082
95 1 1 27.214326 26.855964 22.466396
96 1 1 27.287530 26.529076 22.645799
97 1 1 27.144664 26.181089 22.699601
98 1 1 26.836144 26.111969 22.910404
99 1 1 26.639357 25.799581 23.000344
100 1 1 26.481910 25.632080 23.302923
101 1 1 26.686145 25.597717 23.621525
102 1 1 26.826274 25.808822 23.904718
103 1 1 27.087213 26.082656 23.941136
104 1 1 27.431960 25.923475 23.926627
105 1 1 27.588694 25.793746 23.605683
106 1 1 27.621539 26.058583 23.335160
107 1 1 27.565271 26.434388 23.333145
108 1 1 27.321497 26.681182 23.488281
109 1 1 27.097532 26.985832 23.526073
110 1 1 26.737008 27.094055 23.474016
111 1 1 26.393781 27.094465 23.310935
112 1 1 26.136603 26.967265 23.560093
113 1 1 25.767850 27.049858 23.520104
114 1 1 25.472731 26.968847 23.745364
115 1 1 25.134850 26.988624 23.918122
116 1 1 24.803013 26.964833 24.101748
117 1 1 24.619671 27.202009 24.335272
118 1 1 24.412583 27.513909 24.270211
119 1 1 24.224119 27.843515 24.285744
120 1 1 24.096284 28.115719 24.053444
121 1 1 23.966307 28.231922 23.715801
122 1 1 23.954447 28.094691 23.361644
123 1 1 23.700285 27.923444 23.136975
124 1 1 23.618728 27.677097 22.859375
125 1 1 23.821597 27.486178 22.600929
126 1 1 23.972646 27.239277 22.354710
127 1 1 24.218552 26.988285 22.210027
128 1 1 24.026704 26.702007 22.049906
129 1 1 23.682769 26.721115 21.889458
130 1 1 23.486232 26.402091 21.826237
131 1 1 23.390442 26.214082 22.142270
132 1 1 23.428218 25.841754 22.076355
133 1 1 23.192964 25.710520 21.808337
134 1 1 22.868498 25.554566 21.929992
135 1 1 22.573776 25.787591 21.873091
136 1 1 22.482114 26.002570 21.573454
137 1 1 22.326775 26.160167 21.264532
138 1 1 22.565944 26.412644 21.111386
139 1 1 22.876720 26.576984 21.255646
140 1 1 23.127797 26.827792 21.119795
141 1 1 23.383621 26.886084 21.394670
142 1 1 23.200598 27.064194 21.676058
143 1 1 22.997631 27.224326 21.954558
144 1 1 22.650460 27.227796 22.109025
145 1 1 22.449507 26.905505 22.096947
146 1 1 22.301165 26.557407 22.061978
147 1 1 21.927213 26.544965 21.995602
148 1 1 21.600477 26.580321 21.804833
149 1 1 21.281613 26.403411 21.697928
150 1 1 21.288743 26.193838 21.381024
151 1 1 21.260370 26.385118 21.053905
152 1 1 21.022183 26.670089 20.973541
153 1 1 20.653508 26.740860 20.914634
154 1 1 20.502657 26.856378 20.585545
155 1 1 20.272848 27.140894 20.482404
156 1 1 20.335052 27.395147 20.206929
157 1 1 20.432787 27.234811 19.876565
158 1 1 20.631648 27.407857 19.602870
159 1 1 20.608451 27.343521 19.229075
160 1 1 20.559161 27.154744 18.902986
161 1 1 20.636252 27.301302 18.560966
162 1 1 20.749704 27.069350 18.282171
163 1 1 21.100834 26.991495 18.159508
164 1 1 21.207332 26.630746 18.213528
165 1 1 21.134920 26.312217 18.407681
166 1 1 21.097892 26.095843 18.717861
167 1 1 21.073897 26.210595 19.079324
168 1 1 21.096906 26.586531 19.129752
169 1 1 21.012417 26.792166 19.437934
170 1 1 21.211710 26.971774 19.707050
171 1 1 21.001123 26.935548 20.021280
172 1 1 21.177911 27.106027 20.311251
173 1 1 21.456450 26.906552 20.475646
174 1 1 21.543564 26.625729 20.234919
175 1 1 21.733209 26.296746 20.220595
176 1 1 21.863988 26.017508 19.998507
177 1 1 21.966907 25.651711 19.998654
178 1 1 22.009736 25.540639 20.359526
179 1 1 21.836885 25.771610 20.606861
180 1 1 21.800947 25.781942 20.985017
181 1 1 21.934831 25.446159 21.102170
182 1 1 22.088175 25.164164 20.898788
183 1 1 22.395516 24.999135 21.049476
184 1 1 22.705350 25.192888 20.945254
185 1 1 23.044713 25.029699 20.894241
186 1 1 23.351269 24.999815 20.671687
187 1 1 23.689400 24.827144 20.687561
188 1 1 23.886344 24.879071 21.008367
189 1 1 24.099164 24.614767 21.179396
190 1 1 24.178959 24.343693 21.433467
191 1 1 24.155400 23.993288 21.578593
192 1 1 24.409580 23.729324 21.679169
193 1 1 24.470233 23.503649 21.978822
194 1 1 24.358191 23.568806 22.336035
195 1 1 24.059074 23.802511 22.353674
196 1 1 23.687265 23.834087 22.425511
197 1 1 23.647303 23.832643 22.803401
198 1 1 23.329349 23.884094 23.005038
199 1 1 23.266824 24.256699 23.045735
200 1 1 23.168723 24.621017 23.090998
201 1 1 23.036336 24.923369 22.902698
202 1 1 23.045646 24.931054 22.522890
203 1 1 23.308865 24.812888 22.275600
204 1 1 23.344426 25.038913 21.972205
205 1 1 23.402077 24.954855 21.606131
206 1 1 23.578769 25.240279 21.428051
207 1 1 23.899478 25.329314 21.611404
208 1 1 24.153282 25.592241 21.715583
209 1 1 24.256769 25.957786 21.707385
210 1 1 24.627345 25.996875 21.781853
211 1 1 24.865588 25.703043 21.817955
212 1 1 24.984333 25.486889 22.107052
213 1 1 24.925293 25.587128 22.468806
214 1 1 25.229773 25.726540 22.648407
215 1 1 25.234482 25.811707 23.018710
216 1 1 25.508628 25.897923 23.267327
217 1 1 25.864882 25.769902 23.300402
218 1 1 25.946254 25.513006 23.032478
219 1 1 25.709365 25.216726 23.054866
220 1 1 25.445531 25.028220 22.856732
221 1 1 25.258796 24.728306 22.996667
222 1 1 24.933296 24.697626 23.190339
223 1 1 24.650841 24.929529 23.294456
224 1 1 24.540475 24.807482 23.636982
225 1 1 24.244388 24.632803 23.798907
226 1 1 23.919548 24.798513 23.905768
227 1 1 24.027362 25.108581 24.097168
228 1 1 24.020456 25.488333 24.085294
229 1 1 23.896598 25.685465 23.784964
230 1 1 23.548956 25.648026 23.636156
231 1 1 23.205496 25.794826 23.706047
232 1 1 22.901493 25.924876 23.893315
233 1 1 22.691846 26.240295 23.862348
234 1 1 22.411311 26.453064 23.719416
235 1 1 22.440305 26.831774 23.731189
236 1 1 22.234499 27.019308 23.989791
237 1 1 22.086971 27.293280 24.207907
238 1 1 21.852276 27.534591 24.384222
239 1 1 21.604846 27.684740 24.137983
240 1 1 21.488985 27.794767 23.793208
241 1 1 21.268208 27.581487 23.569222
242 1 1 20.977195 27.487047 23.343850
243 1 1 21.087811 27.465416 22.980950
244 1 1 21.069760 27.146109 22.775725
245 1 1 21.064608 26.807853 22.948804
246 1 1 21.227611 26.854012 23.288951
247 1 1 21.544423 27.058650 23.335359
248 1 1 21.915753 27.137720 23.319177
249 1 1 22.115731 26.881675 23.122074
250 1 1 22.313661 26.944779 22.803888
251 1 1 22.608748 27.180486 22.761866
252 1 1 22.955368 27.279143 22.641363
253 1 1 22.935822 27.631124 22.499493
254 1 1 22.587289 27.759411 22.579912
255 1 1 22.265580 27.777840 22.378507
256 1 1 22.091801 28.115696 22.385869
257 1 1 21.752058 28.251464 22.488541
258 1 1 21.395896 28.340408 22.586713
259 1 1 21.052960 28.480754 22.670962
260 1 1 20.819766 28.779298 22.700821
261 1 1 20.570440 28.789355 22.987413
262 1 1 20.630111 28.550014 23.276473
263 1 1 20.732044 28.556795 23.642483
264 1 1 20.661449 28.738453 23.968699
265 1 1 20.301454 28.859620 23.957636
266 1 1 19.985061 28.723927 23.796754
267 1 1 19.947907 28.534134 23.469649
268 1 1 20.061401 28.256895 23.235859
269 1 1 20.335609 27.995380 23.264487
270 1 1 20.259787 27.662381 23.097864
271 1 1 20.182913 27.388530 22.845880
272 1 1 20.146637 27.256174 22.491527
273 1 1 19.787749 27.133212 22.469619
274 1 1 19.498972 27.357361 22.573372
275 1 1 19.185672 27.146267 22.532351
276 1 1 18.881139 27.259062 22.729675
277 1 1 18.629275 26.975157 22.748714
278 1 1 18.267494 26.977544 22.632488
279 1 1 18.040047 27.043886 22.929585
280 1 1 17.834738 26.823340 23.161118
281 1 1 17.603757 26.613773 23.378212
282 1 1 17.413076 26.294526 23.299969
283 1 1 17.558969 26.017279 23.515026
284 1 1 17.412123 26.024799 23.865425
285 1 1 17.191270 25.729470 23.957104
286 1 1 17.283713 25.598571 24.301661
287 1 1 17.254897 25.735367 24.655011
288 1 1 17.402315 25.546594 24.950024
289 1 1 17.147025 25.590038 25.228124
290 1 1 16.786321 25.518521 25.132321
291 1 1 16.447474 25.488988 25.301762
292 1 1 16.191859 25.325697 25.072858
293 1 1 16.260886 25.380487 24.703218
294 1 1 16.001315 25.186476 24.504770
295 1 1 16.070661 25.045125 24.158921
296 1 1 16.200311 24.841394 23.865519
297 1 1 16.249009 24.480952 23.755474
298 1 1 16.496522 24.455324 23.468279
299 1 1 16.573706 24.632643 23.141170
300 1 1 16.933947 24.579307 23.032626
301 1 1 17.255169 24.587781 22.829785
302 1 1 17.526284 24.686632 22.582550
303 1 1 17.893510 24.664336 22.677670
304 1 1 18.183359 24.611120 22.437763
305 1 1 18.131354 24.805224 22.115243
306 1 1 17.759205 24.815699 22.039115
307 1 1 17.729639 24.695138 21.679962
308 1 1 17.646532 24.471991 21.383822
309 1 1 17.629552 24.093061 21.360939
310 1 1 17.767986 23.835213 21.118554
311 1 1 17.553512 23.647901 20.866929
312 1 1 17.356593 23.917410 20.685303
313 1 1 17.242653 23.889197 20.323886
314 1 1 17.462397 23.975702 20.026180
315 1 1 17.600503 23.640881 19.911195
316 1 1 17.686291 23.636700 19.541028
317 1 1 17.768904 23.878708 19.259947
318 1 1 17.513146 24.136144 19.147187
319 1 1 17.335482 24.136294 18.811277
320 1 1 17.093589 24.364440 18.627327
321 1 1 17.052627 24.463338 18.262716
322 1 1 16.718818 24.548022 18.102091
323 1 1 16.487054 24.836401 18.015360
324 1 1 16.669310 25.164304 18.075878
325 1 1 17.036712 25.111096 17.994729
326 1 1 17.413767 25.158294 17.995951
327 1 1 17.790318 25.187036 18.038181
328 1 1 18.019516 25.340737 17.776946
329 1 1 18.273781 25.073925 17.684422
330 1 1 18.612627 25.233848 17.747729
331 1 1 18.914122 25.181943 17.973132
332 1 1 19.257746 25.328261 17.903033
333 1 1 19.606422 25.450173 17.992264
334 1 1 19.901070 25.330260 17.784410
335 1 1 20.214534 25.214979 17.965656
336 1 1 20.301030 25.416147 18.276221
337 1 1 20.306294 25.224915 18.604554
338 1 1 20.240856 25.388847 18.941072
339 1 1 19.872186 25.455811 19.004307
340 1 1 19.767408 25.650850 19.313145
341 1 1 19.586360 25.984910 19.318201
342 1 1 19.756363 26.317296 19.389042
343 1 1 20.079814 26.510244 19.338539
344 1 1 20.399885 26.357078 19.202543
345 1 1 20.628162 26.259803 19.490340
346 1 1 20.618743 26.387392 19.848156
347 1 1 20.556565 26.094454 20.082082
348 1 1 20.529415 25.717910 20.038748
349 1 1 20.782464 25.505835 20.226871
350 1 1 20.992411 25.284909 19.999905
351 1 1 21.336060 25.380518 19.868891
352 1 1 21.423415 25.717546 19.716638
353 1 1 21.639577 25.636572 19.414782
354 1 1 21.894707 25.904188 19.327088
355 1 1 22.240188 25.750202 19.290605
356 1 1 22.490860 25.906052 19.529925
357 1 1 22.550718 26.277984 19.480087
358 1 1 22.520413 26.630147 19.619597
359 1 1 22.643705 26.910385 19.394507
360 1 1 22.500342 26.943082 19.044111
361 1 1 22.674316 27.184738 18.808027
362 1 1 22.930415 27.016224 18.583491
363 1 1 23.045756 26.727657 18.364800
364 1 1 23.054007 26.519736 18.046836
365 1 1 23.358119 26.367261 17.877524
366 1 1 23.463059 26.122016 17.606890
367 1 1 23.307681 25.862152 17.377264
368 1 1 23.457393 25.802439 17.033141
369 1 1 23.162057 25.732619 16.804446
370 1 1 23.213062 25.521312 16.492760
371 1 1 22.984345 25.255933 16.345580
372 1 1 22.779822 25.046824 16.588157
373 1 1 22.467423 24.874895 16.719487
374 1 1 22.125373 25.032758 16.769295
375 1 1 21.990308 25.244533 16.484149
376 1 1 22.152910 25.265236 16.141319
377 1 1 22.307325 25.609338 16.094959
378 1 1 22.500541 25.882426 16.275211
379 1 1 22.693186 26.078631 16.012930
380 1 1 23.071350 26.085971 15.976345
381 1 1 23.382415 26.245332 16.125486
382 1 1 23.408091 26.358810 16.487237
383 1 1 23.446882 26.493115 16.840588
384 1 1 23.786055 26.653599 16.900641
385 1 1 23.979087 26.967661 16.992856
386 1 1 24.332926 27.099747 16.951000
387 1 1 24.531849 27.186866 17.262833
388 1 1 24.489184 27.412529 17.565580
389 1 1 24.455291 27.731603 17.769156
390 1 1 24.774220 27.921308 17.850986
391 1 1 25.053493 27.726461 17.682342
392 1 1 25.183763 27.477844 17.426178
393 1 1 25.409399 27.628097 17.159884
394 1 1 25.349846 27.682320 16.788518
395 1 1 25.165791 27.916051 16.552099
396 1 1 24.801319 27.993116 16.627073
397 1 1 24.541234 28.250928 16.728503
398 1 1 24.560938 28.534377 16.980829
399 1 1 24.482444 28.583931 17.349317
400 1 1 24.670084 28.754733 17.632191
401 1 1 24.787447 28.588067 17.952891
402 1 1 24.927325 28.771387 18.254931
403 1 1 24.868670 29.146223 18.276314
404 1 1 24.532573 29.199746 18.445353
405 1 1 24.352203 28.954826 18.673126
406 1 1 24.205115 28.818670 18.995968
407 1 1 24.328797 28.697175 19.334112
408 1 1 24.440493 28.347205 19.431296
409 1 1 24.740834 28.215625 19.623343
410 1 1 24.909279 28.501992 19.807789
411 1 1 25.099809 28.803410 19.939111
412 1 1 24.872669 29.061100 20.101604
413 1 1 24.726905 29.061214 20.452535
414 1 1 24.645205 28.698003 20.528711
415 1 1 24.380166 28.451204 20.413624
416 1 1 24.369790 28.091507 20.291516
417 1 1 24.717852 27.940644 20.313714
418 1 1 25.040487 27.882790 20.505963
419 1 1 25.150329 28.089478 20.805320
420 1 1 25.190055 27.862034 21.107133
421 1 1 25.354516 27.742622 21.428215
422 1 1 25.212281 27.748439 21.780543
423 1 1 25.242696 27.442683 22.004123
424 1 1 25.351875 27.078868 21.993224
425 1 1 25.677094 26.893646 22.058990
426 1 1 25.899996 27.059138 22.318466
427 1 1 25.891333 27.433342 22.384008
428 1 1 25.612951 27.676695 22.471658
429 1 1 25.432806 27.814255 22.776658
430 1 1 25.466479 28.190370 22.819136
431 1 1 25.386979 28.528185 22.973929
432 1 1 25.095880 28.757236 22.889095
433 1 1 24.732826 28.854746 22.833562
434 1 1 24.729605 29.234718 22.836926
435 1 1 25.043558 29.385045 22.989359
436 1 1 25.407367 29.446560 23.080236
437 1 1 25.708836 29.414824 23.309386
438 1 1 25.983298 29.167465 23.398177
439 1 1 26.196547 29.232439 23.705915
440 1 1 26.048201 29.447993 23.981469
441 1 1 26.234496 29.601993 24.274690
442 1 1 26.497703 29.852290 24.386375
443 1 1 26.837135 29.717673 24.491561
444 1 1 27.001337 29.878662 24.794084
445 1 1 27.187682 30.134525 25.004345
446 1 1 27.558588 30.216257 25.016522
447 1 1 27.718289 30.523488 24.859982
448 1 1 27.939895 30.779303 24.687212
449 1 1 28.127086 30.923157 24.389445
450 1 1 28.070839 31.127468 24.074019
451 1 1 29.515398 31.998223 5.874659
452 1 1 29.502610 31.874471 5.515602
453 1 1 29.541715 31.709638 5.175454
454 1 1 29.475457 31.426367 4.930981
455 1 1 29.366092 31.086073 5.059975
456 1 1 29.235545 30.776051 4.883216
457 1 1 29.142188 30.537943 4.602166
458 1 1 28.860627 30.644371 4.370226
459 1 1 28.533569 30.828075 4.430942
460 1 1 28.478082 31.160361 4.606745
461 1 1 28.337809 31.508658 4.548325
462 1 1 27.979809 31.605841 4.465917
463 1 1 27.637489 31.459574 4.389610
464 1 1 27.593744 31.093630 4.297025
465 1 1 27.538444 30.853631 4.586407
466 1 1 27.589578 30.478434 4.554584
467 1 1 27.782951 30.287327 4.289093
468 1 1 27.990670 30.286321 3.970892
469 1 1 27.907458 30.481278 3.655507
470 1 1 27.914695 30.642985 3.311707
471 1 1 27.658423 30.884721 3.169270
472 1 1 27.342383 30.809159 2.972268
473 1 1 27.199324 31.102747 2.778001
474 1 1 27.070401 31.457481 2.733926
475 1 1 26.965337 31.663284 3.035599
476 1 1 26.736426 31.901269 3.223649
477 1 1 26.480370 32.037479 3.469174
478 1 1 26.149115 32.222969 3.485419
479 1 1 25.909943 32.096252 3.752139
480 1 1 25.774598 32.237054 4.078109
481 1 1 25.513187 32.136640 4.334977
482 1 1 25.233932 31.901459 4.440364
483 1 1 25.314128 31.792965 4.795607
484 1 1 25.348535 31.445463 4.945470
485 1 1 25.367707 31.395157 5.321637
486 1 1 25.416129 31.166463 5.621227
487 1 1 25.697408 31.000858 5.815796
488 1 1 25.715327 30.641587 5.693307
489 1 1 25.360851 30.512354 5.648077
490 1 1 25.216428 30.378260 5.972978
491 1 1 25.149631 30.221668 6.312709
492 1 1 25.261937 30.427106 6.612012
493 1 1 25.076599 30.498661 6.935941
494 1 1 25.210275 30.754077 7.183516
495 1 1 25.047856 31.089244 7.108126
496 1 1 25.053021 31.241527 6.760012
497 1 1 25.178869 31.501364 6.512935
498 1 1 25.478162 31.641718 6.325521
499 1 1 25.579374 31.667072 5.960126
500 1 1 25.762018 31.991552 5.884267
501 1 1 25.922721 32.181548 6.171453
502 1 1 26.116898 32.458513 6.344618
503 1 1 26.152639 32.813400 6.475681
504 1 1 25.990602 33.152708 6.420782
505 1 1 25.683723 33.297721 6.591653
506 1 1 25.670779 33.246215 6.967923
507 1 1 25.569409 32.963803 7.201091
508 1 1 25.813451 32.761570 7.410723
509 1 1 25.960727 32.419916 7.488069
510 1 1 26.157640 32.099078 7.539920
511 1 1 26.118298 31.721133 7.542968
512 1 1 26.140271 31.618973 7.908319
513 1 1 26.168415 31.244075 7.963627
514 1 1 25.910988 30.980121 8.055607
515 1 1 25.538304 30.964889 7.982982
516 1 1 25.340748 30.643792 8.030605
517 1 1 25.461882 30.456059 8.337985
518 1 1 25.727254 30.196518 8.256645
519 1 1 25.806098 30.038436 7.920203
520 1 1 25.639405 29.940199 7.593151
521 1 1 25.696583 29.587662 7.463350
522 1 1 25.925618 29.310885 7.587196
523 1 1 25.872691 28.983487 7.772693
524 1 1 25.747055 28.629766 7.831829
525 1 1 25.367432 28.646655 7.832813
526 1 1 25.156580 28.465227 7.573920
527 1 1 25.011956 28.431841 7.224107
528 1 1 25.165649 28.312225 6.897809
529 1 1 25.205617 27.935322 6.925128
530 1 1 24.970395 27.701061 6.740216
531 1 1 24.910922 27.329786 6.685281
532 1 1 24.779731 27.009744 6.527920
533 1 1 25.063328 26.757502 6.546522
534 1 1 25.255498 26.561385 6.809218
535 1 1 25.565465 26.620822 7.020850
536 1 1 25.912169 26.681281 7.164171
537 1 1 26.202777 26.708977 7.407440
538 1 1 26.298903 26.621264 7.764464
539 1 1 26.507968 26.903162 7.910156
540 1 1 26.613019 27.062342 8.238828
541 1 1 26.564315 27.382987 8.436857
542 1 1 26.483799 27.741043 8.535409
543 1 1 26.677770 28.044373 8.413893
544 1 1 26.940000 28.168383 8.659366
545 1 1 26.962185 28.527424 8.781828
546 1 1 26.636570 28.723085 8.772236
547 1 1 26.565891 29.009918 8.533215
548 1 1 26.343406 29.317885 8.540788
549 1 1 26.154417 29.468185 8.247372
550 1 1 26.326089 29.682232 7.984479
551 1 1 26.636621 29.674477 7.765596
552 1 1 26.519803 29.659609 7.404303
553 1 1 26.380058 29.823834 7.091411
554 1 1 26.169684 30.133431 7.156927
555 1 1 25.982493 30.452883 7.071428
556 1 1 25.862903 30.799942 7.169651
557 1 1 26.027424 31.133814 7.093086
558 1 1 25.934632 31.353333 6.797111
559 1 1 26.169036 31.593813 6.619278
560 1 1 26.496138 31.786786 6.632132
561 1 1 26.805480 31.623103 6.780171
562 1 1 27.150467 31.761217 6.859597
563 1 1 27.497987 31.880320 6.762416
564 1 1 27.792909 32.020486 6.956773
565 1 1 28.069109 32.239575 6.814950
566 1 1 28.238692 32.566996 6.906801
567 1 1 28.381485 32.751069 7.207013
568 1 1 28.423052 32.482256 7.472365
569 1 1 28.183631 32.187815 7.452813
570 1 1 28.366814 31.866336 7.366240
571 1 1 28.500534 31.575150 7.570518
572 1 1 28.740307 31.290522 7.647305
573 1 1 29.027816 31.154782 7.439188
574 1 1 29.028071 30.841488 7.224137
575 1 1 29.293517 30.693167 6.996236
576 1 1 29.553517 30.443896 7.117331
577 1 1 29.519193 30.154612 7.361333
578 1 1 29.278146 29.861756 7.338269
579 1 1 28.940979 29.687777 7.317076
580 1 1 28.666438 29.761816 7.569158
581 1 1 28.513912 29.786458 7.916331
582 1 1 28.722310 29.659920 8.207807
583 1 1 28.532835 29.473899 8.479644
584 1 1 28.398471 29.127618 8.399422
585 1 1 28.513489 28.767775 8.440451
586 1 1 28.409788 28.514137 8.177176
587 1 1 28.150692 28.496274 7.899777
588 1 1 27.856530 28.577703 7.673419
589 1 1 27.835559 28.948045 7.590914
590 1 1 28.071064 29.182196 7.775605
591 1 1 27.882135 29.314649 8.077536
592 1 1 27.570500 29.353209 8.291537
593 1 1 27.416765 29.052942 8.466480
594 1 1 27.656462 28.770859 8.552357
595 1 1 27.938484 28.602845 8.743760
596 1 1 28.178243 28.564141 9.036023
597 1 1 28.203855 28.494273 9.408666
598 1 1 28.286490 28.744554 9.682401
599 1 1 28.597942 28.930654 9.795382
600 1 1 28.577226 29.275068 9.954598
601 1 1 28.412735 29.573738 9.786852
602 1 1 28.050692 29.558605 9.901289
603 1 1 27.886308 29.672789 10.224306
604 1 1 28.018533 29.781445 10.563585
605 1 1 28.000044 29.780615 10.943134
606 1 1 27.804861 30.086477 11.056057
607 1 1 27.863469 30.300084 11.364824
608 1 1 28.122178 30.206846 11.627077
609 1 1 27.986864 30.246269 11.979973
610 1 1 28.114434 30.483147 12.248330
611 1 1 28.408195 30.706804 12.338229
612 1 1 28.776669 30.793301 12.372069
613 1 1 28.851028 31.148995 12.483210
614 1 1 29.173044 31.304548 12.611697
615 1 1 29.395377 31.558969 12.437807
616 1 1 29.435614 31.512169 12.062853
617 1 1 29.598843 31.455218 11.724455
618 1 1 29.774073 31.118692 11.703375
619 1 1 30.014546 31.109855 11.997475
620 1 1 30.233396 31.207178 12.292488
621 1 1 30.599089 31.239372 12.194344
622 1 1 30.881854 30.986154 12.176327
623 1 1 30.927539 30.912165 11.806410
624 1 1 30.903327 31.165813 11.524494
625 1 1 31.184977 31.416974 11.479869
626 1 1 31.261920 31.720765 11.694791
627 1 1 31.439290 31.934494 11.954136
628 1 1 31.545326 32.124230 12.265835
629 1 1 31.544226 32.479312 12.401169
630 1 1 31.399119 32.626470 12.720055
631 1 1 31.581380 32.577700 13.049907
632 1 1 31.950537 32.549651 12.964256
633 1 1 32.279669 32.563887 12.774862
634 1 1 32.566292 32.811885 12.802145
635 1 1 32.912744 32.965992 12.777215
636 1 1 33.128953 32.761203 13.013256
637 1 1 33.357747 32.919950 13.271815
638 1 1 33.710664 33.058535 13.246432
639 1 1 34.017930 33.279219 13.210567
640 1 1 34.111841 33.574346 13.430751
641 1 1 34.255128 33.830678 13.189581
642 1 1 34.426087 34.165892 13.242534
643 1 1 34.384480 34.374147 13.557652
644 1 1 34.739068 34.456648 13.666557
645 1 1 35.052151 34.504280 13.876583
646 1 1 35.179202 34.518940 14.234414
647 1 1 35.480296 34.743802 14.290800
648 1 1 35.448971 34.881335 14.643650
649 1 1 35.720099 34.915193 14.907741
650 1 1 36.083500 35.006280 14.971322
651 1 1 36.418775 34.836924 15.028850
652 1 1 36.677506 35.111705 14.984649
653 1 1 36.952410 35.331247 14.841023
654 1 1 37.307775 35.459866 14.801356
655 1 1 37.643041 35.592570 14.681414
656 1 1 37.936072 35.832340 14.713708
657 1 1 38.238040 36.058795 14.757685
658 1 1 38.513328 36.159812 14.516000
659 1 1 38.554683 36.528060 14.431834
660 1 1 38.811224 36.667865 14.674819
661 1 1 38.812727 37.046664 14.644665
662 1 1 38.674528 37.371138 14.786149
663 1 1 38.422183 37.655110 14.795195
664 1 1 38.615176 37.980556 14.830395
665 1 1 38.545679 38.349059 14.768952
666 1 1 38.384902 38.577818 15.026286
667 1 1 38.611730 38.632223 15.326268
668 1 1 38.626844 38.796030 15.668815
669 1 1 38.956352 38.765574 15.855622
670 1 1 39.308140 38.755528 15.712288
671 1 1 39.489609 38.502428 15.494552
672 1 1 39.826427 38.330612 15.456695
673 1 1 39.828681 38.130426 15.133709
674 1 1 39.940859 37.800377 14.982433
675 1 1 39.696300 37.672194 14.721358
676 1 1 39.421115 37.410860 14.701932
677 1 1 39.473225 37.034463 14.705161
678 1 1 39.329363 36.917863 15.036986
679 1 1 39.112590 36.826972 15.335563
680 1 1 38.864448 36.966203 15.587437
681 1 1 38.890353 37.320441 15.722508
682 1 1 39.216158 37.325232 15.918029
683 1 1 39.518853 37.403789 15.702149
684 1 1 39.418689 37.585204 15.383628
685 1 1 39.214432 37.809158 15.154448
686 1 1 39.075852 38.159303 15.205387
687 1 1 39.154849 38.457181 14.983063
688 1 1 39.451398 38.600719 14.793707
689 1 1 39.734956 38.548900 14.546100
690 1 1 39.776508 38.388513 14.204121
691 1 1 39.657963 38.032793 14.142393
692 1 1 39.882678 37.769143 13.986213
693 1 1 40.007491 37.416684 14.053997
694 1 1 40.122320 37.085920 14.201676
695 1 1 40.064044 36.736063 14.338074
696 1 1 40.089199 36.383576 14.477787
697 1 1 40.307801 36.073314 14.459064
698 1 1 40.598625 36.134127 14.222160
699 1 1 40.893929 36.264578 14.422604
700 1 1 40.836789 36.213125 14.794743
701 1 1 41.036926 35.955626 14.989780
702 1 1 41.195129 35.610536 14.972903
703 1 1 41.081426 35.311014 14.768555
704 1 1 40.798960 35.067752 14.694819
705 1 1 40.776889 34.749714 14.901614
706 1 1 40.799288 34.612106 15.255115
707 1 1 40.919566 34.862231 15.514674
708 1 1 40.826411 35.210308 15.635357
709 1 1 40.670650 35.556610 15.620748
710 1 1 40.846485 35.814534 15.837444
711 1 1 40.655900 36.140300 15.793242
712 1 1 40.404469 36.212924 16.068756
713 1 1 40.314658 36.560459 16.193471
714 1 1 39.991070 36.745141 16.118748
715 1 1 39.656280 36.565446 16.113705
716 1 1 39.328266 36.634999 16.292503
717 1 1 39.047038 36.573997 16.540675
718 1 1 38.754461 36.578145 16.783124
719 1 1 38.564960 36.690454 17.092763
720 1 1 38.327586 36.912198 17.289950
721 1 1 38.060249 37.156988 17.175894
722 1 1 38.003538 37.531590 17.146609
723 1 1 38.245377 37.711150 17.378282
724 1 1 38.339955 38.078918 17.364072
725 1 1 38.448625 38.352865 17.603955
726 1 1 38.284631 38.628264 17.808065
727 1 1 38.061739 38.841737 18.029759
728 1 1 38.188135 39.200088 18.032719
729 1 1 38.208342 39.549494 17.884709
730 1 1 38.197109 39.785735 17.587280
731 1 1 37.928375 40.054211 17.597425
732 1 1 37.890052 40.339725 17.349609
733 1 1 38.114152 40.397407 17.048192
734 1 1 38.453404 40.494176 16.906968
735 1 1 38.777724 40.347057 17.039527
736 1 1 39.058925 40.596159 17.096745
737 1 1 39.333407 40.564395 17.357611
738 1 1 39.571420 40.445154 17.628778
739 1 1 39.579114 40.294027 17.977349
740 1 1 39.443677 39.940472 17.944852
741 1 1 39.516878 39.615724 17.761602
742 1 1 39.287158 39.528038 17.471878
743 1 1 38.918089 39.589782 17.538025
744 1 1 38.679179 39.544750 17.245974
745 1 1 38.429389 39.274552 17.340831
746 1 1 38.144545 39.102882 17.157001
747 1 1 38.104454 38.809323 16.919059
748 1 1 37.785172 38.880346 16.725629
749 1 1 37.490388 38.770514 16.512464
750 1 1 37.295246 38.586059 16.243585
751 1 1 37.356319 38.249078 16.078924
752 1 1 37.329617 37.935255 16.291532
753 1 1 37.597945 37.786947 16.516042
754 1 1 37.940783 37.904021 16.630740
755 1 1 38.246834 37.682471 16.590137
756 1 1 38.483706 37.486300 16.366958
757 1 1 38.298551 37.302950 16.090371
758 1 1 38.274787 37.522025 15.780789
759 1 1 38.043112 37.796886 15.657588
760 1 1 37.844124 37.837854 15.336456
761 1 1 37.931432 37.949568 14.983898
762 1 1 37.686332 37.789087 14.741881
763 1 1 37.466153 37.971559 14.491631
764 1 1 37.150834 38.059572 14.298686
765 1 1 37.228536 38.097909 13.928696
766 1 1 37.505303 38.036789 13.675587
767 1 1 37.864921 37.981072 13.566178
768 1 1 38.193040 38.153666 13.649541
769 1 1 38.328386 38.189541 14.002803
770 1 1 38.098688 37.988236 14.228889
771 1 1 38.221099 37.629597 14.200721
772 1 1 38.316516 37.390187 13.921475
773 1 1 38.019500 37.271628 13.716230
774 1 1 37.722893 37.083930 13.570650
775 1 1 37.460288 37.315407 13.422807
776 1 1 37.189557 37.492588 13.622084
777 1 1 36.869011 37.523464 13.420350
778 1 1 36.550281 37.701668 13.315210
779 1 1 36.225001 37.623052 13.495244
780 1 1 35.931727 37.458149 13.318615
781 1 1 35.560442 37.524004 13.271601
782 1 1 35.500728 37.898227 13.299734
783 1 1 35.634216 38.173536 13.525092
784 1 1 35.575133 38.293417 13.880813
785 1 1 35.356049 38.495395 14.116626
786 1 1 35.561126 38.675757 14.380847
787 1 1 35.568118 38.534582 14.733580
788 1 1 35.234591 38.412963 14.869111
789 1 1 34.996723 38.709248 14.874947
790 1 1 34.743394 38.898289 14.664026