LAMMPS data file for polymer system

27000 atoms
26940 bonds

1 atom types
1 bond types

0.0 42.1940968663639 xlo xhi
0.0 42.1940968663639 ylo yhi
0.0 42.1940968663639 zlo zhi

Masses

1 5.65487

Atoms

1 1 1 31.254445 22.889193 7.300650
2 1 1 31.481820 23.188905 7.354258
3 1 1 31.493650 23.387560 7.030536
4 1 1 31.378938 23.749721 7.039489
5 1 1 31.076292 23.826528 6.822910
6 1 1 30.868389 23.550829 6.664270
7 1 1 30.656431 23.235678 6.651865
8 1 1 30.277269 23.212017 6.643155
9 1 1 30.080316 22.996339 6.400065
10 1 1 30.096047 22.704319 6.157420
11 1 1 30.257114 22.686589 5.813701
12 1 1 30.160869 22.763230 5.454169
13 1 1 30.032956 22.824736 5.101670
14 1 1 29.932159 22.664533 4.772164
15 1 1 30.219367 22.711750 4.527865
16 1 1 30.305411 22.914560 4.218245
17 1 1 30.064121 22.893103 3.925467
18 1 1 29.999395 23.070766 3.595852
19 1 1 29.849632 23.017579 3.250682
20 1 1 29.515447 22.868592 3.148097
21 1 1 29.172323 22.967854 3.018434
22 1 1 28.805240 22.962647 3.116533
23 1 1 28.738615 22.608491 3.237092
24 1 1 28.764014 22.547570 3.611316
25 1 1 28.966723 22.308580 3.826241
26 1 1 29.346450 22.316781 3.838094
27 1 1 29.621898 22.225250 4.083350
28 1 1 29.936123 22.088366 3.919261
29 1 1 30.304017 22.166735 3.865297
30 1 1 30.600021 22.025858 3.673111
31 1 1 30.777525 22.190870 3.380428
32 1 1 31.135172 22.065583 3.352293
33 1 1 31.473576 22.237986 3.364958
34 1 1 31.666394 22.100819 3.662290
35 1 1 31.880613 22.092221 3.976036
36 1 1 32.128878 22.004168 4.249918
37 1 1 32.306194 21.668080 4.247992
38 1 1 32.515466 21.476999 3.994825
39 1 1 32.733747 21.374958 3.700987
40 1 1 32.665704 21.080553 3.470561
41 1 1 32.348374 20.910683 3.592404
42 1 1 32.008009 21.062046 3.667512
43 1 1 31.814704 21.145926 3.351289
44 1 1 31.441887 21.215468 3.327388
45 1 1 31.118849 21.246135 3.525142
46 1 1 30.805440 21.051109 3.615359
47 1 1 30.549841 21.195516 3.856639
48 1 1 30.490759 20.936769 4.128593
49 1 1 30.383934 20.836476 4.479206
50 1 1 30.619679 20.553689 4.573310
51 1 1 30.437285 20.272467 4.752327
52 1 1 30.269584 19.977065 4.922662
53 1 1 30.310868 19.755425 5.228555
54 1 1 30.553684 19.474157 5.308109
55 1 1 30.897168 19.632743 5.343737
56 1 1 31.238351 19.769155 5.246856
57 1 1 31.227210 20.137930 5.155859
58 1 1 31.196349 20.413276 4.895797
59 1 1 31.476893 20.487576 4.650493
60 1 1 31.709743 20.708246 4.446812
61 1 1 31.884930 21.033169 4.356621
62 1 1 32.028214 21.201564 4.665672
63 1 1 31.807757 21.259575 4.969701
64 1 1 31.899671 21.292021 5.336987
65 1 1 31.962334 21.606527 5.540848
66 1 1 32.185205 21.907244 5.606409
67 1 1 32.427508 22.142704 5.780327
68 1 1 32.217847 22.442807 5.882211
69 1 1 31.861037 22.499740 5.764544
70 1 1 31.618730 22.335199 6.006647
71 1 1 31.706857 21.989295 6.136969
72 1 1 31.755156 21.667459 6.333154
73 1 1 31.884607 21.315443 6.394207
74 1 1 32.010300 21.173308 6.723447
75 1 1 31.822421 21.043240 7.027065
76 1 1 31.857996 21.144860 7.391493
77 1 1 32.096132 21.241273 7.671486
78 1 1 32.392412 21.457053 7.771771
79 1 1 32.400607 21.681527 8.078274
80 1 1 32.561218 22.024979 8.103673
81 1 1 32.921197 22.085242 8.209422
82 1 1 33.244993 22.176339 8.386221
83 1 1 33.367313 22.460378 8.607036
84 1 1 33.519249 22.744775 8.405954
85 1 1 33.808017 22.962744 8.522153
86 1 1 33.890028 23.292555 8.692151
87 1 1 33.735453 23.638551 8.663990
88 1 1 33.629682 23.868198 8.947671
89 1 1 33.294363 23.854735 9.125941
90 1 1 33.040321 24.137246 9.118861
91 1 1 32.665174 24.129408 9.058834
92 1 1 32.430916 24.342040 8.848332
93 1 1 32.074949 24.466911 8.894100
94 1 1 31.723318 24.457554 9.037864
95 1 1 31.561676 24.420004 9.379715
96 1 1 31.443973 24.060121 9.411818
97 1 1 31.633177 23.750117 9.523619
98 1 1 31.894058 23.819144 9.791157
99 1 1 32.069353 23.994410 10.079173
100 1 1 32.078475 24.373897 10.096681
101 1 1 32.307340 24.500868 9.821183
102 1 1 32.430657 24.545937 9.464586
103 1 1 32.469957 24.908647 9.358300
104 1 1 32.690248 25.218224 9.364160
105 1 1 33.014969 25.302061 9.185477
106 1 1 33.343828 25.413177 9.340090
107 1 1 33.693353 25.459797 9.198462
108 1 1 33.798422 25.319622 8.861250
109 1 1 33.690267 25.405826 8.507313
110 1 1 33.701814 25.181382 8.200897
111 1 1 33.575844 25.016823 7.882382
112 1 1 33.783659 25.133024 7.586223
113 1 1 34.073928 25.359399 7.680551
114 1 1 34.330201 25.278991 7.949361
115 1 1 34.401622 25.516495 8.237269
116 1 1 34.613183 25.799971 8.376131
117 1 1 34.469772 26.097538 8.563981
118 1 1 34.090191 26.105438 8.547988
119 1 1 33.720670 26.152092 8.623337
120 1 1 33.347381 26.203319 8.574031
121 1 1 33.017910 26.392597 8.578741
122 1 1 32.735573 26.283956 8.348778
123 1 1 32.785772 26.383052 7.985377
124 1 1 32.500014 26.311970 7.745191
125 1 1 32.327818 25.975722 7.786252
126 1 1 32.065222 25.742069 7.641860
127 1 1 31.698542 25.823773 7.699049
128 1 1 31.567441 25.712566 8.037938
129 1 1 31.608068 25.894175 8.369250
130 1 1 31.465093 26.089470 8.662197
131 1 1 31.488017 25.941107 9.011285
132 1 1 31.565544 25.640336 9.230207
133 1 1 31.330438 25.345409 9.276501
134 1 1 30.964732 25.287870 9.190782
135 1 1 30.624643 25.272455 9.359608
136 1 1 30.521280 24.996759 9.599833
137 1 1 30.577578 25.142724 9.946135
138 1 1 30.398008 25.030001 10.261489
139 1 1 30.209305 25.169143 10.560539
140 1 1 29.874952 25.335794 10.630073
141 1 1 29.495714 25.313778 10.620369
142 1 1 29.228808 25.043866 10.637937
143 1 1 29.165512 24.891310 10.295708
144 1 1 28.941694 25.098266 10.068828
145 1 1 28.727599 25.311722 9.838611
146 1 1 28.653936 25.449299 9.492134
147 1 1 28.431589 25.696862 9.308628
148 1 1 28.255486 25.804310 8.989500
149 1 1 28.481770 25.877032 8.693010
150 1 1 28.667335 25.635023 8.466300
151 1 1 28.872833 25.602577 8.148309
152 1 1 29.128984 25.452874 7.910874
153 1 1 29.162463 25.148748 7.685514
154 1 1 29.298176 25.002045 7.362311
155 1 1 29.598240 24.768987 7.355583
156 1 1 29.520486 24.397131 7.364367
157 1 1 29.157515 24.290114 7.399000
158 1 1 29.034697 24.138846 7.072758
159 1 1 29.180346 24.193980 6.726136
160 1 1 29.082123 23.955823 6.446791
161 1 1 29.251628 24.091057 6.134734
162 1 1 29.419766 24.000116 5.806314
163 1 1 29.280764 23.794431 5.518612
164 1 1 29.010909 23.849700 5.256842
165 1 1 28.739327 23.635662 5.099264
166 1 1 28.517325 23.569967 4.797935
167 1 1 28.255693 23.792268 4.635051
168 1 1 28.364910 24.154305 4.597620
169 1 1 28.488395 24.343786 4.292254
170 1 1 28.549561 24.399198 3.921325
171 1 1 28.706421 24.702637 3.754832
172 1 1 29.000112 24.825694 3.962204
173 1 1 29.287222 24.918089 4.193354
174 1 1 29.618809 25.082164 4.280128
175 1 1 29.796012 25.408315 4.198737
176 1 1 29.970559 25.692508 4.380858
177 1 1 29.923812 26.065206 4.438395
178 1 1 29.655065 26.252537 4.245828
179 1 1 29.337485 26.045991 4.216126
180 1 1 29.086902 25.829212 4.402176
181 1 1 29.038884 25.624144 4.718469
182 1 1 29.018505 25.877931 5.000564
183 1 1 29.088510 26.226218 5.135453
184 1 1 29.387887 26.362175 5.325949
185 1 1 29.330799 26.729879 5.402988
186 1 1 28.978619 26.853611 5.474118
187 1 1 29.000900 27.229391 5.526015
188 1 1 28.819189 27.511333 5.347438
189 1 1 28.942547 27.819215 5.161989
190 1 1 28.686442 28.014664 4.960469
191 1 1 28.575756 27.986932 4.598006
192 1 1 28.354329 28.073008 4.301424
193 1 1 28.117276 28.245928 4.059960
194 1 1 27.804487 28.341877 4.253240
195 1 1 27.451797 28.208957 4.204847
196 1 1 27.075206 28.184434 4.160375
197 1 1 26.788626 27.951928 4.250998
198 1 1 26.472939 28.161459 4.222051
199 1 1 26.243272 28.322861 4.478182
200 1 1 26.158678 28.604551 4.718795
201 1 1 25.943332 28.879590 4.569196
202 1 1 25.874304 29.246649 4.639215
203 1 1 25.806696 29.572768 4.456252
204 1 1 25.677763 29.557747 4.099110
205 1 1 25.881874 29.480769 3.787962
206 1 1 26.099459 29.187802 3.682002
207 1 1 26.377804 29.071511 3.450918
208 1 1 26.705372 28.993236 3.274928
209 1 1 27.026704 28.887684 3.101709
210 1 1 27.145181 28.539705 3.198009
211 1 1 27.358095 28.518335 3.512033
212 1 1 27.447692 28.151321 3.552938
213 1 1 27.616698 27.944622 3.282545
214 1 1 27.981187 27.837520 3.273770
215 1 1 28.232337 28.103949 3.375451
216 1 1 28.440755 28.320144 3.142596
217 1 1 28.514837 28.665832 3.281923
218 1 1 28.325041 28.775615 3.592286
219 1 1 27.959414 28.819933 3.685842
220 1 1 27.810729 29.141200 3.547711
221 1 1 28.005954 29.426283 3.389550
222 1 1 28.372003 29.509551 3.330609
223 1 1 28.670225 29.428643 3.109436
224 1 1 28.761520 29.172993 2.843526
225 1 1 28.995873 29.060574 2.566324
226 1 1 29.292927 29.285481 2.491652
227 1 1 29.607768 29.077135 2.448447
228 1 1 29.818063 29.120906 2.761912
229 1 1 29.951675 28.820430 2.952339
230 1 1 30.107305 28.532987 3.146132
231 1 1 30.431139 28.458713 3.330564
232 1 1 30.476768 28.256688 3.649161
233 1 1 30.718271 28.172436 3.930192
234 1 1 30.901053 27.844936 3.869087
235 1 1 31.173695 27.796730 4.129362
236 1 1 31.062129 27.956450 4.455617
237 1 1 31.153794 28.296985 4.597156
238 1 1 30.839427 28.428090 4.765635
239 1 1 30.514371 28.538300 4.928706
240 1 1 30.302322 28.517843 5.243376
241 1 1 30.069836 28.460132 5.538367
242 1 1 29.728741 28.405878 5.696831
243 1 1 29.429982 28.307699 5.483515
244 1 1 29.234348 28.381844 5.166293
245 1 1 29.360061 28.174165 4.873948
246 1 1 29.278262 28.200792 4.503813
247 1 1 29.231438 28.568523 4.420258
248 1 1 29.351268 28.903038 4.285569
249 1 1 29.491188 29.096326 3.989830
250 1 1 29.427260 29.000726 3.627650
251 1 1 29.061256 28.993623 3.525716
252 1 1 28.857570 29.096585 3.829542
253 1 1 28.743398 29.098371 4.191981
254 1 1 28.451422 29.272303 4.361972
255 1 1 28.175033 29.455408 4.176279
256 1 1 27.813758 29.446107 4.293726
257 1 1 27.461990 29.324797 4.216633
258 1 1 27.277311 29.351490 3.885602
259 1 1 26.961978 29.528290 3.768525
260 1 1 26.746896 29.603650 3.464452
261 1 1 26.561863 29.680104 3.141470
262 1 1 26.669327 30.032092 3.046835
263 1 1 26.748976 30.365193 2.882214
264 1 1 26.628258 30.564570 2.582087
265 1 1 26.397775 30.862349 2.633129
266 1 1 26.365924 31.216630 2.766810
267 1 1 26.106176 31.364844 3.001253
268 1 1 25.794578 31.167643 3.093005
269 1 1 25.674419 31.038099 3.429428
270 1 1 25.853020 30.752844 3.605868
271 1 1 25.890232 30.639613 3.966693
272 1 1 26.069205 30.562585 4.292937
273 1 1 26.026388 30.538807 4.669768
274 1 1 26.146798 30.486072 5.026307
275 1 1 26.097807 30.658808 5.361213
276 1 1 26.039164 31.027320 5.433047
277 1 1 25.747564 31.255201 5.519300
278 1 1 25.537244 31.488505 5.733157
279 1 1 25.449384 31.701155 6.035581
280 1 1 25.236296 31.838123 6.318836
281 1 1 25.314155 31.869995 6.689406
282 1 1 25.294817 31.547424 6.889342
283 1 1 24.980496 31.565087 7.102157
284 1 1 24.604586 31.516316 7.128857
285 1 1 24.551105 31.323132 7.451687
286 1 1 24.452370 31.130060 7.763736
287 1 1 24.129843 31.182269 7.957773
288 1 1 23.818919 31.247546 8.166257
289 1 1 23.692063 31.136896 8.506938
290 1 1 23.471643 31.366199 8.714868
291 1 1 23.291021 31.570067 8.979847
292 1 1 22.963886 31.738199 8.884379
293 1 1 22.814378 31.642268 8.548456
294 1 1 22.709190 31.314699 8.387103
295 1 1 22.949286 31.021037 8.409821
296 1 1 23.074491 30.662262 8.407794
297 1 1 22.873310 30.357807 8.301806
298 1 1 22.810089 30.303710 7.931028
299 1 1 22.543967 30.105352 7.746005
300 1 1 22.292276 30.052732 7.466214
301 1 1 22.255497 30.390239 7.295521
302 1 1 22.311912 30.765281 7.319217
303 1 1 22.519247 31.083437 7.332947
304 1 1 22.730006 31.393383 7.270384
305 1 1 22.763608 31.631912 6.976488
306 1 1 22.456916 31.576992 6.758948
307 1 1 22.541643 31.482806 6.400687
308 1 1 22.770749 31.746698 6.251451
309 1 1 23.125827 31.841258 6.348291
310 1 1 23.353551 32.080959 6.160979
311 1 1 23.728813 32.132339 6.130347
312 1 1 23.947971 31.836038 6.037740
313 1 1 24.324584 31.814082 6.083355
314 1 1 24.543880 32.117087 6.150415
315 1 1 24.564951 32.379795 6.424168
316 1 1 24.850391 32.627120 6.382284
317 1 1 25.218682 32.584438 6.298977
318 1 1 25.392366 32.885458 6.145286
319 1 1 25.665008 33.034913 6.363757
320 1 1 25.993551 33.088610 6.546994
321 1 1 26.112616 33.144869 6.903446
322 1 1 25.985220 33.353685 7.194248
323 1 1 25.966034 33.698700 7.352352
324 1 1 25.951514 34.069647 7.271188
325 1 1 25.945985 34.083413 6.891478
326 1 1 26.093677 34.207906 6.564234
327 1 1 26.388004 34.442297 6.511017
328 1 1 26.684797 34.599050 6.332853
329 1 1 26.909146 34.365178 6.134431
330 1 1 27.190411 34.118151 6.069101
331 1 1 27.145110 33.741633 6.044984
332 1 1 27.351340 33.477255 6.223796
333 1 1 27.327325 33.393428 6.593655
334 1 1 27.513946 33.129319 6.793203
335 1 1 27.495821 32.769098 6.912838
336 1 1 27.757709 32.532875 6.771368
337 1 1 27.975228 32.694801 6.505162
338 1 1 28.320651 32.541506 6.465370
339 1 1 28.689358 32.562464 6.375837
340 1 1 29.041766 32.469392 6.268385
341 1 1 29.086230 32.129886 6.103588
342 1 1 29.348573 32.148407 5.829302
343 1 1 29.530972 31.853739 5.673414
344 1 1 29.514958 31.549693 5.446039
345 1 1 29.696146 31.239620 5.321839
346 1 1 29.794966 31.096574 4.983946
347 1 1 30.105931 30.884212 5.034975
348 1 1 30.307469 31.066573 5.300545
349 1 1 30.662982 31.179813 5.228524
350 1 1 30.877196 30.981912 5.472137
351 1 1 31.202127 30.910829 5.655896
352 1 1 31.465415 31.153031 5.527765
353 1 1 31.759970 30.931860 5.434383
354 1 1 31.771973 30.594597 5.259712
355 1 1 31.644087 30.332948 5.503812
356 1 1 31.833745 30.003815 5.493746
357 1 1 32.011163 29.789008 5.752166
358 1 1 32.034680 29.668017 6.111622
359 1 1 31.952796 29.356872 6.313819
360 1 1 31.716047 29.316059 6.608241
361 1 1 31.377851 29.432116 6.736904
362 1 1 31.067776 29.214236 6.764873
363 1 1 30.769253 29.307348 6.548970
364 1 1 30.709279 29.430297 6.194447
365 1 1 30.452827 29.326775 5.933840
366 1 1 30.482855 29.581160 5.653150
367 1 1 30.815965 29.665056 5.490672
368 1 1 30.957771 29.347376 5.337799
369 1 1 31.117445 29.224334 5.015674
370 1 1 31.325877 29.302165 4.707617
371 1 1 31.682609 29.321868 4.578181
372 1 1 31.867037 29.429467 4.263842
373 1 1 32.246609 29.416992 4.276873
374 1 1 32.431421 29.293384 3.968709
375 1 1 32.763238 29.465222 3.899653
376 1 1 33.030881 29.730467 3.850533
377 1 1 33.272428 29.933265 3.638571
378 1 1 33.389886 30.234500 3.838225
379 1 1 33.513913 30.539906 3.649163
380 1 1 33.787692 30.797787 3.703404
381 1 1 34.088732 30.971460 3.549740
382 1 1 34.033758 31.279043 3.333475
383 1 1 34.342804 31.494822 3.381742
384 1 1 34.462968 31.521684 3.741241
385 1 1 34.805375 31.685396 3.722385
386 1 1 35.049465 31.560179 3.985332
387 1 1 35.351407 31.336067 4.040150
388 1 1 35.655097 31.478953 3.861948
389 1 1 35.853243 31.595300 3.559290
390 1 1 35.992422 31.832774 3.297307
391 1 1 36.276166 31.873196 3.047797
392 1 1 36.494214 31.561999 3.051181
393 1 1 36.526914 31.184027 3.029551
394 1 1 36.215235 30.966882 3.019309
395 1 1 36.006786 30.777631 3.274520
396 1 1 36.181656 30.727606 3.608164
397 1 1 35.995205 30.741866 3.938970
398 1 1 36.245132 30.673713 4.216985
399 1 1 36.402549 30.485814 4.507353
400 1 1 36.737644 30.320972 4.437077
401 1 1 37.027747 30.492722 4.612412
402 1 1 37.298188 30.292115 4.788532
403 1 1 37.675570 30.327670 4.815341
404 1 1 37.963955 30.571506 4.773171
405 1 1 38.263386 30.440937 4.579024
406 1 1 38.250956 30.523467 4.208303
407 1 1 38.581154 30.648925 4.068196
408 1 1 38.605108 30.978656 3.880837
409 1 1 38.551107 31.003709 3.505528
410 1 1 38.795780 30.866266 3.249316
411 1 1 38.802669 30.486481 3.238521
412 1 1 38.783713 30.112047 3.300487
413 1 1 38.558551 29.891388 3.512646
414 1 1 38.702497 29.563347 3.639407
415 1 1 38.667696 29.192909 3.562177
416 1 1 38.545576 28.844100 3.650606
417 1 1 38.815931 28.678988 3.860478
418 1 1 38.704645 28.427341 4.122565
419 1 1 38.330132 28.437651 4.186078
420 1 1 38.095685 28.225331 4.396683
421 1 1 37.754886 28.111582 4.520444
422 1 1 37.658148 28.337745 4.810085
423 1 1 37.557017 28.702931 4.838578
424 1 1 37.392064 29.045093 4.849339
425 1 1 37.526536 29.272595 5.122395
426 1 1 37.296884 29.563628 5.205822
427 1 1 37.153750 29.654808 5.545820
428 1 1 36.828961 29.477583 5.632443
429 1 1 36.605412 29.505886 5.938424
430 1 1 36.261104 29.610341 6.060661
431 1 1 35.887964 29.550709 6.020537
432 1 1 35.705548 29.314621 5.785191
433 1 1 35.360962 29.263813 5.937110
434 1 1 35.191421 29.492131 6.189155
435 1 1 35.129021 29.510679 6.563538
436 1 1 34.942755 29.827678 6.659542
437 1 1 34.812621 30.048356 6.940195
438 1 1 34.939977 30.291366 7.203114
439 1 1 35.139210 30.613852 7.176489
440 1 1 35.027372 30.930972 6.999494
441 1 1 34.810587 31.170913 7.199075
442 1 1 34.514555 31.141150 7.435463
443 1 1 34.138622 31.109134 7.390192
444 1 1 33.842674 30.989653 7.183942
445 1 1 33.909498 30.996304 6.809923
446 1 1 33.778070 30.821901 6.498941
447 1 1 33.924248 30.942161 6.169442
448 1 1 34.270544 31.085431 6.106570
449 1 1 34.592786 31.268493 6.190523
450 1 1 34.535340 31.617005 6.330663
451 1 1 2.553599 13.524490 0.520326
452 1 1 2.412005 13.776179 0.273337
453 1 1 2.671691 14.017707 0.136855
454 1 1 2.861052 14.323528 0.259397
455 1 1 2.757277 14.541873 0.552580
456 1 1 2.598086 14.733632 0.839436
457 1 1 2.262819 14.912392 0.845826
458 1 1 1.956696 15.059764 0.675620
459 1 1 1.577502 15.072066 0.654152
460 1 1 1.418733 15.304078 0.398491
461 1 1 1.294537 15.645648 0.509423
462 1 1 1.469360 15.923098 0.701407
463 1 1 1.813064 16.075469 0.756644
464 1 1 2.014935 16.371970 0.631204
465 1 1 1.866817 16.624209 0.388643
466 1 1 2.075868 16.695385 0.079400
467 1 1 2.228943 16.943905 42.030174
468 1 1 1.953533 17.169934 41.898034
469 1 1 1.869204 17.321591 41.559968
470 1 1 1.564742 17.540689 41.620785
471 1 1 1.374376 17.757259 41.868290
472 1 1 1.374630 17.554656 42.189774
473 1 1 1.024308 17.454285 0.103383
474 1 1 1.015202 17.112000 0.268179
475 1 1 1.225570 16.878310 0.054791
476 1 1 0.983383 17.006918 41.985819
477 1 1 0.826259 17.161290 41.676172
478 1 1 1.097399 17.215954 41.415604
479 1 1 1.388418 16.979420 41.354288
480 1 1 1.294616 16.674700 41.147535
481 1 1 1.233561 16.795397 40.792423
482 1 1 1.222957 16.614487 40.458419
483 1 1 0.910687 16.436660 40.334866
484 1 1 0.643190 16.257879 40.132671
485 1 1 0.646683 15.884063 40.200861
486 1 1 0.473691 15.603429 40.011868
487 1 1 0.211492 15.331241 39.972307
488 1 1 42.048012 15.232705 39.889665
489 1 1 41.781638 15.459273 39.740964
490 1 1 41.683535 15.702794 39.466240
491 1 1 41.908867 16.000155 39.394116
492 1 1 0.073435 15.877440 39.367650
493 1 1 0.211640 16.051558 39.675842
494 1 1 0.105824 16.403050 39.774109
495 1 1 42.116833 16.221985 40.053562
496 1 1 0.093476 16.296104 40.384854
497 1 1 0.113258 16.672292 40.434769
498 1 1 42.091277 16.984847 40.430365
499 1 1 41.770936 16.873745 40.258789
500 1 1 41.500868 16.607190 40.279074
501 1 1 41.125515 16.607599 40.338322
502 1 1 40.872020 16.666403 40.061407
503 1 1 40.990070 16.933910 39.818705
504 1 1 40.781767 17.251500 39.830819
505 1 1 40.775874 17.556273 40.057708
506 1 1 40.931021 17.452264 40.388633
507 1 1 40.664097 17.351312 40.639551
508 1 1 40.694420 17.509800 40.983589
509 1 1 40.476300 17.672575 41.248784
510 1 1 40.196159 17.644400 41.503984
511 1 1 39.879228 17.742777 41.689124
512 1 1 39.983925 18.013333 41.934559
513 1 1 39.997022 18.351564 42.107266
514 1 1 40.072780 18.723709 42.120270
515 1 1 39.841031 18.469425 0.087517
516 1 1 39.762355 18.622016 0.426524
517 1 1 39.428556 18.604048 0.607233
518 1 1 39.288160 18.250941 0.605150
519 1 1 39.002604 18.097330 0.407006
520 1 1 38.780236 17.810607 0.294124
521 1 1 38.551670 17.726762 0.002358
522 1 1 38.909899 17.823745 42.114808
523 1 1 39.200876 17.946331 41.903372
524 1 1 39.374603 17.800150 0.013989
525 1 1 39.684626 17.614038 0.130813
526 1 1 39.906757 17.335601 42.192507
527 1 1 39.619665 17.104514 42.099897
528 1 1 39.307836 17.058640 41.887627
529 1 1 38.989613 16.853892 41.922451
530 1 1 38.926993 16.680811 0.060802
531 1 1 39.276556 16.539010 0.015004
532 1 1 39.462879 16.225590 0.122018
533 1 1 39.633781 16.190032 0.459551
534 1 1 39.562441 16.429533 0.745819
535 1 1 39.742673 16.586606 1.041192
536 1 1 40.018354 16.839848 1.106525
537 1 1 40.220033 17.147531 1.201691
538 1 1 40.221708 17.513476 1.099310
539 1 1 40.469703 17.743339 1.272694
540 1 1 40.662245 17.955960 1.023455
541 1 1 40.814639 17.729353 0.759210
542 1 1 41.122844 17.596367 0.581097
543 1 1 41.291456 17.262141 0.646387
544 1 1 41.557519 17.125493 0.411999
545 1 1 41.685517 16.771963 0.467073
546 1 1 41.459500 16.548206 0.675037
547 1 1 41.096941 16.569476 0.786832
548 1 1 40.871861 16.772122 1.016340
549 1 1 40.875070 17.071413 1.250466
550 1 1 40.864283 17.064306 1.630246
551 1 1 40.753221 16.720608 1.748302
552 1 1 40.753804 16.689978 2.127066
553 1 1 40.512095 16.591994 2.403427
554 1 1 40.178564 16.772689 2.380937
555 1 1 39.998477 17.029595 2.595339
556 1 1 39.773873 17.319678 2.694360
557 1 1 39.604134 17.476148 2.392523
558 1 1 39.647288 17.703810 2.091346
559 1 1 39.447771 17.955320 1.888034
560 1 1 39.126136 18.155942 1.861537
561 1 1 39.034393 18.419274 2.119683
562 1 1 38.838107 18.347691 2.437091
563 1 1 38.946892 18.227527 2.780786
564 1 1 39.096278 18.103322 3.107370
565 1 1 39.270270 18.110775 3.445114
566 1 1 39.259707 18.449468 3.617089
567 1 1 39.081915 18.775636 3.537057
568 1 1 39.109750 18.938865 3.195031
569 1 1 39.275625 19.276675 3.247660
570 1 1 39.013128 19.550038 3.275380
571 1 1 39.119510 19.844602 3.490590
572 1 1 39.229923 20.203851 3.546709
573 1 1 39.206098 20.563817 3.666111
574 1 1 39.364215 20.882170 3.800463
575 1 1 39.531593 21.072856 3.517579
576 1 1 39.660174 20.947556 3.182666
577 1 1 39.430180 20.715866 2.988187
578 1 1 39.291871 20.798859 2.644119
579 1 1 39.161812 21.146615 2.563183
580 1 1 39.025572 21.469685 2.416678
581 1 1 39.167037 21.721899 2.170150
582 1 1 39.345767 22.056559 2.148750
583 1 1 39.591950 22.072007 2.437810
584 1 1 39.502816 22.273108 2.747670
585 1 1 39.336884 22.170194 3.073669
586 1 1 39.553539 22.078462 3.372075
587 1 1 39.831230 22.181666 3.610060
588 1 1 39.679884 22.208917 3.957553
589 1 1 39.369855 21.989381 3.948308
590 1 1 39.301354 21.661309 3.769208
591 1 1 38.963199 21.682876 3.597203
592 1 1 38.938122 21.614980 3.224160
593 1 1 38.624021 21.409722 3.164075
594 1 1 38.376031 21.169023 3.322077
595 1 1 38.284770 21.232184 3.685508
596 1 1 38.127648 21.576079 3.723574
597 1 1 38.322332 21.879400 3.843966
598 1 1 38.257260 22.247075 3.773386
599 1 1 38.471384 22.432567 4.026652
600 1 1 38.844286 22.378603 3.977336
601 1 1 39.068293 22.682692 4.019177
602 1 1 39.237238 22.936902 3.792825
603 1 1 39.448957 23.248623 3.841865
604 1 1 39.752630 23.305513 4.063103
605 1 1 39.880520 23.640036 4.190141
606 1 1 40.251848 23.668387 4.265718
607 1 1 40.567778 23.614650 4.469924
608 1 1 40.865478 23.594410 4.705222
609 1 1 41.211732 23.476697 4.808429
610 1 1 41.315232 23.146726 4.650927
611 1 1 41.413359 22.788982 4.568521
612 1 1 41.102646 22.630294 4.417936
613 1 1 40.962076 22.351154 4.634085
614 1 1 40.596629 22.409663 4.720257
615 1 1 40.339131 22.671403 4.622344
616 1 1 40.419681 23.034808 4.545870
617 1 1 40.562362 23.062069 4.194730
618 1 1 40.710746 23.145103 3.854895
619 1 1 40.615412 23.414049 3.603938
620 1 1 40.330538 23.658880 3.661423
621 1 1 40.386535 24.033500 3.631029
622 1 1 40.297383 24.401327 3.597044
623 1 1 40.296611 24.740400 3.768593
624 1 1 40.295385 25.074476 3.587508
625 1 1 40.114337 25.367972 3.747138
626 1 1 40.342746 25.585230 3.959336
627 1 1 40.569283 25.868709 4.072124
628 1 1 40.670282 25.926545 4.433862
629 1 1 40.904519 26.048363 4.707163
630 1 1 40.955869 25.895580 5.051286
631 1 1 41.247545 25.923717 5.293222
632 1 1 41.592463 25.775255 5.351449
633 1 1 41.957691 25.746323 5.250596
634 1 1 0.120156 25.817934 5.140435
635 1 1 0.358734 25.528529 5.201469
636 1 1 0.555549 25.547046 5.526001
637 1 1 0.710113 25.325069 5.792902
638 1 1 0.482577 25.181483 6.061250
639 1 1 0.556295 24.977618 6.373347
640 1 1 0.903529 24.823292 6.369879
641 1 1 1.048226 24.640552 6.669994
642 1 1 1.120792 24.441364 6.985364
643 1 1 1.265731 24.658693 7.261336
644 1 1 1.567849 24.649956 7.491659
645 1 1 1.927290 24.770894 7.515663
646 1 1 2.205502 24.951854 7.700735
647 1 1 2.417867 24.861911 8.002747
648 1 1 2.687899 24.604329 7.931092
649 1 1 3.064604 24.612550 7.881840
650 1 1 3.417609 24.729070 7.960649
651 1 1 3.691989 24.923156 7.783319
652 1 1 3.790357 25.289454 7.759871
653 1 1 3.917724 25.468626 7.449911
654 1 1 3.911461 25.791555 7.249718
655 1 1 4.221105 26.010306 7.223856
656 1 1 4.530294 25.909123 7.420234
657 1 1 4.441596 25.682574 7.712139
658 1 1 4.222708 25.731143 8.018943
659 1 1 4.003684 25.750526 8.328867
660 1 1 4.150570 26.035497 8.532868
661 1 1 4.518962 26.095212 8.604430
662 1 1 4.876712 26.140386 8.724323
663 1 1 5.221334 26.161933 8.565668
664 1 1 5.532242 26.158853 8.347204
665 1 1 5.853365 26.055853 8.172072
666 1 1 5.960981 25.703768 8.077973
667 1 1 5.933643 25.547585 7.732633
668 1 1 5.825825 25.703859 7.403461
669 1 1 5.589356 25.482581 7.204669
670 1 1 5.327717 25.331262 7.434991
671 1 1 4.949545 25.351855 7.466004
672 1 1 4.726802 25.100174 7.288686
673 1 1 4.904602 24.766398 7.325837
674 1 1 4.902567 24.496418 7.058430
675 1 1 4.582675 24.291313 7.059348
676 1 1 4.426880 24.016952 6.847560
677 1 1 4.692622 23.926031 6.591602
678 1 1 4.946026 24.176857 6.460175
679 1 1 5.081726 24.463233 6.250475
680 1 1 5.018367 24.755936 6.016572
681 1 1 4.776991 24.918043 5.771911
682 1 1 4.612161 25.235777 5.644334
683 1 1 4.870057 25.402026 5.420167
684 1 1 4.802656 25.716543 5.217840
685 1 1 4.460678 25.687965 5.054641
686 1 1 4.279450 25.978227 4.889400
687 1 1 4.283099 26.270568 5.132142
688 1 1 4.193441 26.580604 4.931546
689 1 1 4.247610 26.940683 5.040216
690 1 1 4.353000 27.305464 5.055308
691 1 1 4.499138 27.572105 5.283225
692 1 1 4.636180 27.859214 5.075409
693 1 1 4.684983 27.777182 4.707592
694 1 1 5.036407 27.797572 4.564464
695 1 1 5.147253 27.962758 4.240695
696 1 1 5.473208 27.967338 4.045419
697 1 1 5.678593 28.015041 3.729284
698 1 1 6.001308 27.982570 3.531292
699 1 1 6.221626 28.261716 3.397363
700 1 1 6.036270 28.553521 3.239587
701 1 1 5.846371 28.430400 2.934334
702 1 1 5.648233 28.124632 2.826414
703 1 1 5.535701 27.812646 2.640937
704 1 1 5.806307 27.548559 2.678761
705 1 1 6.132780 27.655223 2.516163
706 1 1 6.403518 27.897913 2.626629
707 1 1 6.707999 27.875782 2.852906
708 1 1 7.009807 27.715689 3.019285
709 1 1 7.230236 27.828593 3.307492
710 1 1 7.105509 27.664100 3.626530
711 1 1 7.281356 27.406854 3.844020
712 1 1 7.292941 27.345977 4.218933
713 1 1 7.467456 27.305474 4.554051
714 1 1 7.446783 27.640258 4.732635
715 1 1 7.333456 27.891693 4.994049
716 1 1 7.272503 28.189811 5.221668
717 1 1 7.243321 28.104582 5.590835
718 1 1 6.930831 28.072443 5.804650
719 1 1 6.608196 28.173889 5.631401
720 1 1 6.240163 28.245841 5.692844
721 1 1 5.984913 27.978210 5.605546
722 1 1 6.039325 27.604752 5.649915
723 1 1 6.120661 27.402059 5.338949
724 1 1 6.484299 27.292309 5.350024
725 1 1 6.861708 27.281887 5.306968
726 1 1 7.153800 27.085840 5.163275
727 1 1 7.503764 26.946245 5.113895
728 1 1 7.539948 26.567991 5.117726
729 1 1 7.614611 26.200130 5.058529
730 1 1 7.930089 25.988297 5.059302
731 1 1 8.268205 26.133451 5.154215
732 1 1 8.573399 26.120361 5.380235
733 1 1 8.922013 26.234699 5.479205
734 1 1 9.152057 26.250718 5.177173
735 1 1 9.437252 26.288074 4.928842
736 1 1 9.356584 26.534948 4.651451
737 1 1 9.254265 26.747249 4.353358
738 1 1 9.302146 27.111773 4.257287
739 1 1 9.562128 27.327600 4.431149
740 1 1 9.507043 27.698483 4.369413
741 1 1 9.311232 27.896957 4.111215
742 1 1 9.376850 28.169112 3.854259
743 1 1 9.416221 28.037125 3.500099
744 1 1 9.351847 27.983093 3.129510
745 1 1 9.287863 28.267282 2.885496
746 1 1 9.490330 28.348824 2.574436
747 1 1 9.713973 28.445613 2.282862
748 1 1 9.641124 28.706335 2.016184
749 1 1 9.564349 28.864349 1.679232
750 1 1 9.513999 28.780468 1.312041
751 1 1 9.166332 28.712831 1.174372
752 1 1 9.091036 28.747679 0.803540
753 1 1 8.985184 28.614870 0.463603
754 1 1 8.722547 28.771049 0.237704
755 1 1 8.541998 29.086954 0.347273
756 1 1 8.348930 29.399686 0.443833
757 1 1 7.980991 29.492831 0.462406
758 1 1 7.814064 29.604511 0.784994
759 1 1 7.666579 29.365797 1.041244
760 1 1 7.359771 29.398048 1.263120
761 1 1 7.468676 29.613956 1.556247
762 1 1 7.234956 29.850345 1.740354
763 1 1 7.006508 30.038963 1.502373
764 1 1 6.931891 30.165961 1.152082
765 1 1 6.783930 30.178632 0.802300
766 1 1 6.537910 29.910015 0.694044
767 1 1 6.575695 29.654142 0.415654
768 1 1 6.880716 29.435220 0.474265
769 1 1 7.079389 29.112264 0.449193
770 1 1 6.945008 28.760795 0.396171
771 1 1 7.076361 28.565735 0.097678
772 1 1 7.160295 28.227463 42.140357
773 1 1 7.030087 27.874815 42.084815
774 1 1 6.814532 27.561886 42.088240
775 1 1 6.977635 27.460574 0.222066
776 1 1 6.640746 27.344283 0.090225
777 1 1 6.559514 26.974172 0.061602
778 1 1 6.839618 26.791667 42.075050
779 1 1 7.193363 26.667489 42.013049
780 1 1 7.554894 26.562664 41.961020
781 1 1 7.886416 26.476442 42.125517
782 1 1 7.864499 26.848964 0.003163
783 1 1 7.913637 27.056824 0.317456
784 1 1 7.749394 26.952226 0.643774
785 1 1 7.655045 27.152271 0.952773
786 1 1 7.820591 26.986702 1.252075
787 1 1 8.012613 27.146113 1.538633
788 1 1 8.005817 27.317950 1.877492
789 1 1 7.648130 27.319317 2.005782
790 1 1 7.302267 27.176536 2.072054
791 1 1 7.282471 26.904695 2.336839
792 1 1 7.024339 26.869976 2.613538
793 1 1 6.675125 26.972723 2.504483
794 1 1 6.362673 27.116613 2.665943
795 1 1 6.113365 26.875108 2.820604
796 1 1 5.935014 26.539848 2.834474
797 1 1 5.762281 26.221366 2.949072
798 1 1 5.873641 25.928848 3.164553
799 1 1 6.242093 25.949388 3.255224
800 1 1 6.416046 26.239832 3.082648
801 1 1 6.654027 26.397467 3.333480
802 1 1 6.892277 26.683353 3.256629
803 1 1 7.222285 26.869370 3.286497
804 1 1 7.496450 26.699816 3.085289
805 1 1 7.650080 26.960088 2.854950
806 1 1 7.806561 27.277537 2.716603
807 1 1 7.556902 27.553206 2.638647
808 1 1 7.464088 27.921448 2.652174
809 1 1 7.267472 28.160399 2.431619
810 1 1 6.965507 28.373860 2.519090
811 1 1 6.773769 28.688935 2.427634
812 1 1 6.397560 28.635458 2.430223