LAMMPS data file for polymer system

27000 atoms
26940 bonds

1 atom types
1 bond types

0.0 42.1940968663639 xlo xhi
0.0 42.1940968663639 ylo yhi
0.0 42.1940968663639 zlo zhi

Masses

1 5.65487

Atoms

1 1 1 15.110272 13.853943 5.235573
2 1 1 15.247924 13.500620 5.210788
3 1 1 15.490829 13.284316 5.407282
4 1 1 15.835428 13.333686 5.254918
5 1 1 15.780837 13.449936 4.897279
6 1 1 15.535670 13.654623 4.691374
7 1 1 15.493891 13.927271 4.429998
8 1 1 15.359886 14.243749 4.592123
9 1 1 15.171150 14.485654 4.816311
10 1 1 14.852103 14.604375 4.647449
11 1 1 14.476245 14.635251 4.600789
12 1 1 14.172011 14.410689 4.638396
13 1 1 13.936283 14.382202 4.341714
14 1 1 13.748968 14.074319 4.221211
15 1 1 13.920486 13.788529 4.038713
16 1 1 13.804889 13.433306 4.108383
17 1 1 13.469979 13.276686 4.196160
18 1 1 13.201813 13.511011 4.328745
19 1 1 13.235554 13.675366 4.669698
20 1 1 13.421183 13.631765 4.998393
21 1 1 13.393458 13.487357 5.348789
22 1 1 13.684693 13.641712 5.537885
23 1 1 14.003637 13.542046 5.718830
24 1 1 14.056089 13.524109 6.094765
25 1 1 14.109972 13.862938 6.258141
26 1 1 14.416092 13.877299 6.482828
27 1 1 14.723415 13.676291 6.385112
28 1 1 14.879760 13.452736 6.120576
29 1 1 15.221140 13.323726 6.014670
30 1 1 15.366518 12.974728 6.052956
31 1 1 15.590172 12.705937 5.904192
32 1 1 15.658351 12.550082 5.564397
33 1 1 15.994848 12.373550 5.561889
34 1 1 16.356194 12.428035 5.457675
35 1 1 16.605947 12.167363 5.576306
36 1 1 16.481030 11.860087 5.761717
37 1 1 16.302244 11.727732 6.069805
38 1 1 15.924334 11.688318 6.064308
39 1 1 15.563478 11.613627 5.971549
40 1 1 15.231803 11.754876 5.851381
41 1 1 14.949204 11.501872 5.828428
42 1 1 14.815556 11.373598 5.496639
43 1 1 15.065314 11.180343 5.285278
44 1 1 15.278957 11.277360 4.986372
45 1 1 15.459814 11.115564 4.693946
46 1 1 15.228210 10.835021 4.584150
47 1 1 14.962611 10.764079 4.321806
48 1 1 14.713054 11.023492 4.200042
49 1 1 14.343568 10.995263 4.115880
50 1 1 14.170917 10.706094 3.939889
51 1 1 14.066480 10.449119 3.680165
52 1 1 13.941554 10.114110 3.808860
53 1 1 14.199016 9.857209 3.918930
54 1 1 14.186409 9.547004 3.699810
55 1 1 14.177871 9.197421 3.551086
56 1 1 14.373921 9.033115 3.270074
57 1 1 14.358069 8.654076 3.248201
58 1 1 14.333928 8.507681 3.598038
59 1 1 14.504619 8.180744 3.689563
60 1 1 14.329433 7.865425 3.570050
61 1 1 14.209066 7.566719 3.771759
62 1 1 14.168125 7.251920 3.562892
63 1 1 14.217937 7.326992 3.193727
64 1 1 13.869923 7.324551 3.041148
65 1 1 13.671255 7.178010 2.752259
66 1 1 13.302653 7.228737 2.675061
67 1 1 13.061272 7.499637 2.562151
68 1 1 12.941073 7.833872 2.427099
69 1 1 13.115123 8.052552 2.169640
70 1 1 13.293961 8.087913 1.836223
71 1 1 13.207389 7.854054 1.549491
72 1 1 13.368266 7.510794 1.523199
73 1 1 13.534927 7.474295 1.183653
74 1 1 13.748223 7.611651 0.900743
75 1 1 13.847562 7.381717 0.614977
76 1 1 13.683331 7.057734 0.503338
77 1 1 13.801329 6.699907 0.552697
78 1 1 13.908463 6.565589 0.891638
79 1 1 13.998263 6.199055 0.847038
80 1 1 14.016140 5.926339 0.583019
81 1 1 13.890495 5.608663 0.416599
82 1 1 13.652304 5.320087 0.350350
83 1 1 13.537618 5.405560 42.192394
84 1 1 13.418414 5.048529 42.140246
85 1 1 13.122317 4.825980 42.055402
86 1 1 12.913101 4.922438 0.163504
87 1 1 12.808323 5.263169 0.295126
88 1 1 12.519559 5.458773 0.445972
89 1 1 12.687200 5.727208 0.656303
90 1 1 12.832585 6.070693 0.583631
91 1 1 12.831641 6.246503 0.246749
92 1 1 13.097041 6.518416 0.251920
93 1 1 13.426465 6.586936 0.075328
94 1 1 13.737947 6.442194 42.106857
95 1 1 13.689944 6.819150 42.106497
96 1 1 13.524199 7.141161 41.991443
97 1 1 13.370231 7.441420 41.816691
98 1 1 13.612643 7.650527 41.611970
99 1 1 13.933624 7.686538 41.411783
100 1 1 14.271491 7.615979 41.570740
101 1 1 14.400172 7.294160 41.726541
102 1 1 14.648693 7.211521 42.001873
103 1 1 14.399709 7.056764 0.049555
104 1 1 14.520250 7.415680 0.017161
105 1 1 14.671453 7.513026 0.351917
106 1 1 14.966819 7.727255 0.458052
107 1 1 15.002221 7.664965 0.831237
108 1 1 14.905295 7.375438 1.057465
109 1 1 15.053889 7.037482 0.967435
110 1 1 14.871511 6.713371 0.889394
111 1 1 14.906804 6.429625 0.639110
112 1 1 15.031498 6.125979 0.830553
113 1 1 15.003825 5.748192 0.860738
114 1 1 14.895380 5.414704 1.007113
115 1 1 14.814918 5.093447 0.820781
116 1 1 15.016334 4.771750 0.802276
117 1 1 15.014836 4.436518 0.981211
118 1 1 14.665581 4.292046 1.020563
119 1 1 14.591620 3.922509 0.971852
120 1 1 14.558568 3.732934 0.644180
121 1 1 14.852921 3.526855 0.520538
122 1 1 15.148217 3.312665 0.414127
123 1 1 15.271457 2.993695 0.248388
124 1 1 15.430308 2.734172 0.476016
125 1 1 15.355413 2.395073 0.630295
126 1 1 15.241524 2.061954 0.773336
127 1 1 15.024168 1.917064 1.049314
128 1 1 15.151282 1.785240 1.382277
129 1 1 15.419848 1.520334 1.428077
130 1 1 15.743506 1.454058 1.240320
131 1 1 16.106358 1.479832 1.130435
132 1 1 16.288172 1.797787 1.029204
133 1 1 16.355640 2.086358 1.267059
134 1 1 16.638743 2.339701 1.258694
135 1 1 16.887856 2.626395 1.246469
136 1 1 16.707008 2.952442 1.173067
137 1 1 16.892295 3.180022 0.931663
138 1 1 16.813169 3.405992 0.636575
139 1 1 16.591125 3.626821 0.421329
140 1 1 16.341754 3.402645 0.242558
141 1 1 16.477159 3.602958 42.143500
142 1 1 16.261151 3.305992 42.045768
143 1 1 15.963535 3.083883 41.965192
144 1 1 15.809856 2.847887 41.710067
145 1 1 15.625726 2.530481 41.808808
146 1 1 15.328200 2.375220 41.987056
147 1 1 15.056561 2.121833 41.907010
148 1 1 15.207120 1.812307 41.745997
149 1 1 15.529625 1.907209 41.568842
150 1 1 15.717246 1.578832 41.531873
151 1 1 15.979232 1.505605 41.797206
152 1 1 16.331420 1.367804 41.834275
153 1 1 16.587199 1.483077 42.090575
154 1 1 16.465587 1.351560 0.231611
155 1 1 16.437022 1.199020 0.578476
156 1 1 16.170281 0.930898 0.541604
157 1 1 16.244260 0.567053 0.622502
158 1 1 16.621091 0.541860 0.664499
159 1 1 16.973880 0.462644 0.547603
160 1 1 17.298793 0.506750 0.739661
161 1 1 17.674325 0.486146 0.793988
162 1 1 17.953836 0.738948 0.842618
163 1 1 18.187910 1.033792 0.790891
164 1 1 18.455271 1.262570 0.934344
165 1 1 18.820895 1.340581 0.866274
166 1 1 19.194946 1.278660 0.891797
167 1 1 19.536469 1.113354 0.870926
168 1 1 19.832414 1.151489 0.635634
169 1 1 19.927675 1.043070 0.284108
170 1 1 20.068420 0.711392 0.163359
171 1 1 20.090974 0.469032 0.455169
172 1 1 20.176890 0.671791 0.764857
173 1 1 20.526906 0.819728 0.766875
174 1 1 20.603073 1.164811 0.906576
175 1 1 20.869886 1.374507 1.077568
176 1 1 21.242614 1.419159 1.136559
177 1 1 21.529763 1.212441 1.275171
178 1 1 21.688865 0.878145 1.189541
179 1 1 21.678299 0.807261 0.816360
180 1 1 21.569499 0.516660 0.597012
181 1 1 21.579489 0.265946 0.311630
182 1 1 21.894180 0.341138 0.112342
183 1 1 21.701618 0.508720 42.024950
184 1 1 21.970054 0.753767 41.914072
185 1 1 21.821319 1.100166 41.961874
186 1 1 21.518202 1.207976 41.759644
187 1 1 21.249554 1.448248 41.639240
188 1 1 21.183075 1.378190 41.271718
189 1 1 20.994954 1.216934 40.983608
190 1 1 21.176584 1.106846 40.668504
191 1 1 21.526798 1.097497 40.521320
192 1 1 21.799726 1.036997 40.778711
193 1 1 21.859962 0.943866 41.142164
194 1 1 22.111581 0.659117 41.139782
195 1 1 21.942580 0.333085 41.237466
196 1 1 21.627734 0.135610 41.316688
197 1 1 21.383180 42.039937 41.291660
198 1 1 21.639327 41.879821 41.522206
199 1 1 21.961900 41.730688 41.387647
200 1 1 22.293435 41.777469 41.567358
201 1 1 22.642558 41.635000 41.520289
202 1 1 22.679473 41.439910 41.196287
203 1 1 22.791608 41.090596 41.097265
204 1 1 23.100624 40.951891 41.269513
205 1 1 23.320484 41.223620 41.418594
206 1 1 23.464443 41.561069 41.319580
207 1 1 23.537018 41.912979 41.443243
208 1 1 23.516171 0.068379 41.295535
209 1 1 23.763397 0.277012 41.096158
210 1 1 24.107940 0.384658 40.977402
211 1 1 24.259785 0.086803 40.796777
212 1 1 24.043720 42.000073 40.934080
213 1 1 23.810698 41.786474 40.723186
214 1 1 23.465359 41.651916 40.639310
215 1 1 23.155808 41.836335 40.518612
216 1 1 22.949390 42.064513 40.295618
217 1 1 22.691913 42.151063 40.029884
218 1 1 22.476712 41.849652 39.944797
219 1 1 22.400620 41.627809 39.645806
220 1 1 22.160945 41.607291 39.351638
221 1 1 21.939589 41.367704 39.156702
222 1 1 21.577858 41.252472 39.173202
223 1 1 21.345395 41.526228 39.297373
224 1 1 21.190068 41.871880 39.325617
225 1 1 21.116616 41.999929 39.675772
226 1 1 21.421557 0.031578 39.696979
227 1 1 21.758691 42.162303 39.860456
228 1 1 21.595422 42.173318 40.203416
229 1 1 21.569520 0.210512 40.503805
230 1 1 21.310374 0.267309 40.775867
231 1 1 21.041338 0.381527 41.018712
232 1 1 21.040360 0.373970 41.398636
233 1 1 21.243496 0.659132 41.546347
234 1 1 21.109070 0.763654 41.886060
235 1 1 21.093644 0.490352 42.149628
236 1 1 20.737440 0.427784 0.072168
237 1 1 20.735066 0.795255 0.168911
238 1 1 20.587630 1.080800 42.160210
239 1 1 20.394793 1.403365 42.103943
240 1 1 20.460414 1.535700 41.753827
241 1 1 20.515045 1.909368 41.711541
242 1 1 20.439679 2.274753 41.783746
243 1 1 20.628573 2.602419 41.746952
244 1 1 20.874119 2.612676 42.036784
245 1 1 21.159883 2.740067 0.058349
246 1 1 21.481619 2.762331 42.051472
247 1 1 21.677272 2.474368 41.899165
248 1 1 21.685822 2.095685 41.929595
249 1 1 21.512507 1.888760 0.002975
250 1 1 21.272716 1.635985 0.154649
251 1 1 20.967454 1.545287 0.361986
252 1 1 20.734355 1.755824 0.575853
253 1 1 20.514174 1.956285 0.811937
254 1 1 20.348615 2.254532 0.979386
255 1 1 20.152636 2.566668 0.886849
256 1 1 20.029976 2.906944 0.770372
257 1 1 19.942559 3.205467 0.988643
258 1 1 19.832369 3.559805 0.906774
259 1 1 19.548171 3.772253 0.770768
260 1 1 19.472656 4.079868 0.560838
261 1 1 19.474787 4.456923 0.608003
262 1 1 19.703040 4.513733 0.906455
263 1 1 19.574539 4.634078 1.243211
264 1 1 19.531326 5.010886 1.219786
265 1 1 19.300899 5.295346 1.117874
266 1 1 18.984144 5.443501 1.266589
267 1 1 18.615716 5.395601 1.186802
268 1 1 18.386262 5.511012 0.906746
269 1 1 18.062871 5.311780 0.895582
270 1 1 17.922495 5.281189 1.247376
271 1 1 17.807220 4.920043 1.273551
272 1 1 17.953680 4.665525 1.032366
273 1 1 17.898009 4.307674 1.147447
274 1 1 18.131435 4.248106 1.441324
275 1 1 18.475386 4.320523 1.585732
276 1 1 18.725583 4.605592 1.608904
277 1 1 18.990459 4.786354 1.405027
278 1 1 18.971976 4.769464 1.025853
279 1 1 18.833067 4.793738 0.672985
280 1 1 18.733112 4.848794 0.310525
281 1 1 18.377985 4.800743 0.184129
282 1 1 18.012968 4.696491 0.201289
283 1 1 17.703707 4.580071 0.388915
284 1 1 17.390020 4.760206 0.505327
285 1 1 17.016717 4.757139 0.434367
286 1 1 16.858598 4.412359 0.457295
287 1 1 16.982973 4.122481 0.669194
288 1 1 17.318043 4.171460 0.841618
289 1 1 17.243007 4.384902 1.146924
290 1 1 17.224141 4.320867 1.521014
291 1 1 17.564602 4.250747 1.674538
292 1 1 17.616441 4.007820 1.962112
293 1 1 17.582252 3.646174 2.073664
294 1 1 17.724603 3.412761 2.337584
295 1 1 17.824354 3.190257 2.629033
296 1 1 18.167256 3.256534 2.778784
297 1 1 18.316916 3.131812 3.105045
298 1 1 18.108027 3.023030 3.403259
299 1 1 17.783820 3.085267 3.591451
300 1 1 17.536252 3.342278 3.460856
301 1 1 17.207020 3.160958 3.404914
302 1 1 17.253881 2.942284 3.097691
303 1 1 17.160663 2.692766 2.826673
304 1 1 17.329584 2.750321 2.491184
305 1 1 17.312836 2.412750 2.317503
306 1 1 17.611293 2.221022 2.453753
307 1 1 17.946791 2.350626 2.331101
308 1 1 18.238883 2.347476 2.088053
309 1 1 18.376268 2.692413 2.007158
310 1 1 18.155077 2.848195 1.740313
311 1 1 18.049905 2.773280 1.382924
312 1 1 17.936210 2.444562 1.229894
313 1 1 17.855936 2.131684 1.029736
314 1 1 18.022009 1.791410 1.061880
315 1 1 17.760438 1.546166 1.187721
316 1 1 17.509609 1.719923 1.414201
317 1 1 17.264580 1.649166 1.695901
318 1 1 16.997380 1.821797 1.903753
319 1 1 16.813479 1.809918 2.236077
320 1 1 16.563151 1.558071 2.371388
321 1 1 16.212797 1.411692 2.386402
322 1 1 15.885113 1.449723 2.575021
323 1 1 15.583638 1.234232 2.659142
324 1 1 15.544406 0.916365 2.454638
325 1 1 15.717628 0.595205 2.348571
326 1 1 15.925884 0.418841 2.613004
327 1 1 16.140366 0.154541 2.444057
328 1 1 16.025063 41.986879 2.428704
329 1 1 15.655264 41.904190 2.400219
330 1 1 15.379372 41.940375 2.141426
331 1 1 15.425705 42.042721 1.778413
332 1 1 15.459033 0.161644 1.565556
333 1 1 15.313610 0.508820 1.513396
334 1 1 14.978359 0.523361 1.335085
335 1 1 14.678884 0.403557 1.134181
336 1 1 14.748178 0.131082 0.878533
337 1 1 14.723281 41.946029 0.883567
338 1 1 14.567878 41.609136 0.965743
339 1 1 14.616167 41.316316 1.203072
340 1 1 14.465052 40.967831 1.192009
341 1 1 14.534399 40.680785 1.431164
342 1 1 14.296562 40.384578 1.421414
343 1 1 14.017820 40.289878 1.181133
344 1 1 13.855874 40.607615 1.049920
345 1 1 13.699487 40.952480 1.081710
346 1 1 13.553924 41.301380 1.043233
347 1 1 13.728826 41.635063 0.993582
348 1 1 13.583263 41.986069 0.996104
349 1 1 13.669900 0.115279 0.816196
350 1 1 13.684940 0.050447 0.442070
351 1 1 13.363090 42.047086 0.399377
352 1 1 13.054628 41.841961 0.484082
353 1 1 12.823503 41.791097 0.781393
354 1 1 12.809874 41.428441 0.894066
355 1 1 12.689026 41.079057 0.981968
356 1 1 12.985013 40.853903 0.903880
357 1 1 12.910451 40.584379 0.646592
358 1 1 13.054020 40.621406 0.296710
359 1 1 13.358275 40.420181 0.190232
360 1 1 13.167792 40.489115 42.062825
361 1 1 12.961810 40.701139 41.824043
362 1 1 13.127523 40.803063 41.497621
363 1 1 13.272283 41.021675 41.222571
364 1 1 13.028751 41.106924 40.943600
365 1 1 12.761282 41.175306 40.682479
366 1 1 12.755346 41.166645 40.302624
367 1 1 12.513037 40.924758 40.137768
368 1 1 12.297285 40.988932 39.831610
369 1 1 12.093582 41.266501 39.670798
370 1 1 11.985498 41.531482 39.920804
371 1 1 12.136370 41.628326 40.255855
372 1 1 12.335366 41.649592 40.578885
373 1 1 12.530391 41.712927 40.898813
374 1 1 12.373671 41.902032 41.188775
375 1 1 12.232258 41.984786 41.531637
376 1 1 12.018392 41.800181 41.785767
377 1 1 11.651749 41.723331 41.849539
378 1 1 11.645341 41.730495 0.035321
379 1 1 11.435450 41.678437 0.347788
380 1 1 11.464641 41.869555 0.674930
381 1 1 11.248151 42.166197 0.772581
382 1 1 11.277679 0.339148 0.678755
383 1 1 11.490125 0.381129 0.366498
384 1 1 11.671486 0.068225 0.249882
385 1 1 11.892571 0.100158 42.136568
386 1 1 12.098975 42.186376 0.242737
387 1 1 12.241303 41.867718 0.393070
388 1 1 12.230346 41.654670 0.707538
389 1 1 11.978173 41.382218 0.788649
390 1 1 12.015015 41.168718 1.100835
391 1 1 11.796205 40.961525 1.332337
392 1 1 11.928062 40.606273 1.360801
393 1 1 11.639753 40.363484 1.312513
394 1 1 11.624001 39.983827 1.316027
395 1 1 11.704790 39.750252 1.604671
396 1 1 11.835017 39.478993 1.836748
397 1 1 12.185758 39.367508 1.742132
398 1 1 12.541005 39.257349 1.820004
399 1 1 12.646659 39.058408 1.513964
400 1 1 12.563632 38.727849 1.345926
401 1 1 12.196083 38.678494 1.263028
402 1 1 11.830484 38.774333 1.223631
403 1 1 11.533455 38.950600 1.065190
404 1 1 11.398786 39.055921 0.725820
405 1 1 11.023686 38.995963 0.715570
406 1 1 10.845707 39.273458 0.526574
407 1 1 10.875691 39.381833 0.163592
408 1 1 10.647835 39.156198 42.153799
409 1 1 10.942205 39.394599 42.123608
410 1 1 11.240449 39.519151 41.923765
411 1 1 11.457538 39.820603 42.003760
412 1 1 11.694629 40.114046 41.958161
413 1 1 11.685080 40.394323 41.701738
414 1 1 11.437911 40.540847 41.453065
415 1 1 11.256971 40.822832 41.632356
416 1 1 11.081684 41.138977 41.749518
417 1 1 10.753049 41.307384 41.839171
418 1 1 10.671811 41.583283 42.087527
419 1 1 10.818733 41.905716 0.030728
420 1 1 10.825026 42.181853 41.963848
421 1 1 10.492338 0.066914 41.798160
422 1 1 10.825553 0.249296 41.787959
423 1 1 11.164864 0.416247 41.750600
424 1 1 11.435346 0.153691 41.702598
425 1 1 11.336936 42.127903 41.408717
426 1 1 11.612709 42.161016 41.149385
427 1 1 11.672722 0.341359 41.173743
428 1 1 11.351942 0.373452 40.972571
429 1 1 11.269208 0.291713 40.610806
430 1 1 10.975292 0.364419 40.381183
431 1 1 10.756383 0.408396 40.073701
432 1 1 10.755396 0.609634 39.751362
433 1 1 10.725252 0.412875 39.427669
434 1 1 10.584658 0.642905 39.159863
435 1 1 10.705041 0.935734 38.949722
436 1 1 10.709568 1.274100 38.776840
437 1 1 10.490526 1.584096 38.758857
438 1 1 10.434970 1.681844 39.121843
439 1 1 10.651385 1.796962 39.412209
440 1 1 10.613091 1.995949 39.733671
441 1 1 10.370312 2.249759 39.878717
442 1 1 10.002676 2.164341 39.834582
443 1 1 9.753406 1.973835 39.620171
444 1 1 9.628077 2.115985 39.290799
445 1 1 9.261301 2.170280 39.207570
446 1 1 8.990743 2.049990 38.969392
447 1 1 8.716469 1.916683 39.196114
448 1 1 8.460247 1.723727 39.399874
449 1 1 8.178216 1.919958 39.562207
450 1 1 8.254789 1.964300 39.931761
451 1 1 11.004160 9.161841 16.781189
452 1 1 10.975676 9.320053 16.436867
453 1 1 10.988636 9.549769 16.134439
454 1 1 11.210985 9.835621 16.019331
455 1 1 11.536773 9.790902 16.209757
456 1 1 11.622858 9.913383 16.559024
457 1 1 11.402870 9.925701 16.868627
458 1 1 11.447102 10.201756 17.125992
459 1 1 11.723839 10.457872 17.078857
460 1 1 11.731302 10.664101 16.759774
461 1 1 11.693811 10.559974 16.396247
462 1 1 11.397520 10.749797 16.252792
463 1 1 11.250362 10.985631 16.511881
464 1 1 11.055651 11.308031 16.562336
465 1 1 10.971345 11.517858 16.867729
466 1 1 11.291082 11.671067 17.004460
467 1 1 11.295705 11.698346 17.383452
468 1 1 11.280685 11.693961 17.763130
469 1 1 11.213154 11.479554 18.069511
470 1 1 11.202299 11.382580 18.436768
471 1 1 10.970379 11.276170 18.718353
472 1 1 10.737707 11.032664 18.894332
473 1 1 10.385189 11.138152 18.989219
474 1 1 10.014552 11.121799 18.906993
475 1 1 9.830940 10.913337 18.647705
476 1 1 9.962943 10.558400 18.616156
477 1 1 9.828683 10.364081 18.318475
478 1 1 9.843934 10.435250 17.945510
479 1 1 9.580683 10.655746 17.782782
480 1 1 9.343086 10.949386 17.741266
481 1 1 9.486704 11.156722 17.457038
482 1 1 9.333063 11.467317 17.301071
483 1 1 8.981222 11.549231 17.418959
484 1 1 8.665800 11.416319 17.253904
485 1 1 8.729504 11.245497 16.920495
486 1 1 8.417760 11.043884 16.839449
487 1 1 8.326613 10.843261 17.149034
488 1 1 8.019107 10.620014 17.148357
489 1 1 7.688316 10.543881 16.977532
490 1 1 7.396916 10.585853 16.737273
491 1 1 7.055230 10.608026 16.572472
492 1 1 7.052876 10.584777 16.193192
493 1 1 7.200226 10.306805 15.980074
494 1 1 7.494949 10.068451 16.007019
495 1 1 7.651121 10.062222 15.660650
496 1 1 7.541454 10.026174 15.298609
497 1 1 7.864162 10.047308 15.099076
498 1 1 8.114732 10.218607 14.870448
499 1 1 7.964847 10.526982 14.706619
500 1 1 7.685946 10.715401 14.530232
501 1 1 7.648280 11.059221 14.687615
502 1 1 7.875844 11.315022 14.852479
503 1 1 7.965469 11.324976 15.221625
504 1 1 8.340745 11.380643 15.243279
505 1 1 8.618964 11.152661 15.120730
506 1 1 8.616217 11.144658 14.740824
507 1 1 8.870055 11.092198 14.462950
508 1 1 8.788749 10.979741 14.109195
509 1 1 8.773383 11.161060 13.775597
510 1 1 8.407451 11.250651 13.725927
511 1 1 8.194972 11.536856 13.857606
512 1 1 8.076808 11.897274 13.880762
513 1 1 7.781214 12.136039 13.884637
514 1 1 7.423051 12.255851 13.842626
515 1 1 7.218847 12.338795 13.533077
516 1 1 6.855063 12.248315 13.470829
517 1 1 6.659856 11.938323 13.369838
518 1 1 6.492467 11.618594 13.488809
519 1 1 6.145375 11.611617 13.643336
520 1 1 5.890200 11.882793 13.719161
521 1 1 5.823088 12.192746 13.509817
522 1 1 5.965265 12.474878 13.298660
523 1 1 5.982677 12.818054 13.136405
524 1 1 6.003131 13.164879 12.982476
525 1 1 6.213204 13.442911 13.134026
526 1 1 6.323157 13.785326 13.011297
527 1 1 6.136554 14.093732 13.131568
528 1 1 6.163851 14.441541 13.282180
529 1 1 5.989338 14.695258 13.504830
530 1 1 6.105676 14.810791 13.847638
531 1 1 6.257118 15.158405 13.822544
532 1 1 6.084289 15.481247 13.721039
533 1 1 6.139782 15.684230 13.404624
534 1 1 6.176302 16.042567 13.283542
535 1 1 6.418903 16.133239 13.005471
536 1 1 6.620268 15.851592 12.848859
537 1 1 6.721706 15.485641 12.862632
538 1 1 6.575232 15.312293 12.557844
539 1 1 6.462886 15.222867 12.206019
540 1 1 6.594045 14.873542 12.134119
541 1 1 6.795533 14.651517 12.367586
542 1 1 7.017061 14.417299 12.568752
543 1 1 7.176169 14.072593 12.552558
544 1 1 7.362306 13.890740 12.275642
545 1 1 7.363010 13.510744 12.277426
546 1 1 7.360362 13.131089 12.261456
547 1 1 7.552915 12.841292 12.108679
548 1 1 7.370933 12.704642 11.804362
549 1 1 7.383001 12.344395 11.684044
550 1 1 7.712768 12.211930 11.549484
551 1 1 7.924690 11.980661 11.763969
552 1 1 8.280659 11.942418 11.891341
553 1 1 8.656848 11.956566 11.839555
554 1 1 8.804244 12.305401 11.808114
555 1 1 8.792732 12.612823 11.585046
556 1 1 8.822512 12.724805 11.223144
557 1 1 8.494756 12.814498 11.053054
558 1 1 8.195785 13.032369 10.966169
559 1 1 7.880728 12.821481 10.940376
560 1 1 7.625181 12.859127 10.661668
561 1 1 7.478659 13.200186 10.580367
562 1 1 7.450517 13.521922 10.380131
563 1 1 7.268768 13.788713 10.580604
564 1 1 7.247428 14.165743 10.622948
565 1 1 7.005664 14.306469 10.365758
566 1 1 6.861078 14.546818 10.109385
567 1 1 6.960917 14.851494 9.905413
568 1 1 7.251349 14.764174 9.676450
569 1 1 7.267672 14.971239 9.358239
570 1 1 7.057355 15.106619 9.072164
571 1 1 7.082591 15.484368 9.104863
572 1 1 7.187435 15.831817 9.217500
573 1 1 7.485446 16.059039 9.280426
574 1 1 7.789064 15.965688 9.488997
575 1 1 8.159181 15.919520 9.561671
576 1 1 8.411593 16.163713 9.706785
577 1 1 8.578655 16.145309 10.047596
578 1 1 8.504456 15.840680 10.262294
579 1 1 8.608402 15.854487 10.627540
580 1 1 8.740103 15.741271 10.965529
581 1 1 9.028177 15.664734 11.201232
582 1 1 9.346815 15.812586 11.056287
583 1 1 9.555802 15.989251 10.792632
584 1 1 9.469411 16.209180 10.495028
585 1 1 9.521308 16.578171 10.420517
586 1 1 9.849605 16.687783 10.577380
587 1 1 10.097547 16.666769 10.864579
588 1 1 10.455404 16.558492 10.796650
589 1 1 10.649748 16.250586 10.687910
590 1 1 10.800923 15.903853 10.724270
591 1 1 10.861264 15.744204 10.384754
592 1 1 11.186146 15.733087 10.187960
593 1 1 11.556244 15.657648 10.229637
594 1 1 11.762266 15.915693 10.041575
595 1 1 11.580356 16.244076 9.982636
596 1 1 11.736704 16.566951 9.857308
597 1 1 12.010899 16.828874 9.882077
598 1 1 12.304249 17.026205 9.742769
599 1 1 12.187894 17.266277 9.472164
600 1 1 12.237239 17.419791 9.128073
601 1 1 11.902595 17.382087 8.952029
602 1 1 11.663131 17.109166 9.064151
603 1 1 11.300985 17.224230 9.060976
604 1 1 11.090443 17.487517 8.885613
605 1 1 10.715960 17.523070 8.831780
606 1 1 10.366066 17.471545 8.692784
607 1 1 10.086022 17.676524 8.847570
608 1 1 9.878580 17.701707 9.164956
609 1 1 9.957830 17.588509 9.518941
610 1 1 10.228945 17.659194 9.775651
611 1 1 10.156181 17.539305 10.128825
612 1 1 10.036335 17.604465 10.483496
613 1 1 9.974991 17.579339 10.857669
614 1 1 9.718973 17.825924 10.992023
615 1 1 9.741431 18.197191 10.914201
616 1 1 9.475787 18.393710 11.101854
617 1 1 9.158945 18.425945 10.894557
618 1 1 8.825666 18.576793 10.997369
619 1 1 8.869900 18.953912 11.012368
620 1 1 9.221717 19.095452 10.988050
621 1 1 9.412964 19.414969 10.912329
622 1 1 9.749091 19.591394 10.895229
623 1 1 10.088288 19.719741 11.008688
624 1 1 10.012014 19.936997 11.310982
625 1 1 9.732575 19.977771 11.565249
626 1 1 9.770469 19.730862 11.851605
627 1 1 9.887327 19.371174 11.814611
628 1 1 10.118254 19.249421 12.090743
629 1 1 10.444763 19.097402 11.969574
630 1 1 10.732054 19.320509 11.859631
631 1 1 10.816891 19.611364 12.088991
632 1 1 10.908312 19.920274 12.290527
633 1 1 10.771806 20.226427 12.469513
634 1 1 10.953784 20.551191 12.393275
635 1 1 11.127895 20.725145 12.682802
636 1 1 11.086719 20.814387 13.049871
637 1 1 11.291972 21.065967 13.247301
638 1 1 11.369377 21.393470 13.070809
639 1 1 11.553552 21.684919 12.911004
640 1 1 11.551627 22.037481 12.769242
641 1 1 11.773861 22.147803 12.481421
642 1 1 12.029404 22.334153 12.270776
643 1 1 12.009858 22.268691 11.896967
644 1 1 11.816809 21.943942 11.856101
645 1 1 11.715200 21.615150 12.017257
646 1 1 11.478582 21.511885 12.296091
647 1 1 11.117338 21.461356 12.189557
648 1 1 10.879648 21.326794 12.453747
649 1 1 10.606989 21.275535 12.713419
650 1 1 10.311982 21.195667 12.939233
651 1 1 10.091208 21.072098 13.222763
652 1 1 9.791114 21.144959 13.444203
653 1 1 9.484499 21.337093 13.328134
654 1 1 9.159040 21.143053 13.299418
655 1 1 8.817487 21.309603 13.297734
656 1 1 8.625418 21.377627 13.618487
657 1 1 8.700210 21.116474 13.884203
658 1 1 8.361363 20.997194 14.008119
659 1 1 8.033364 21.131050 14.145593
660 1 1 7.868603 20.954608 14.439059
661 1 1 7.763714 20.595984 14.369868
662 1 1 8.062458 20.441949 14.192598
663 1 1 8.385668 20.431692 14.392172
664 1 1 8.466344 20.120544 14.594851
665 1 1 8.237011 19.839184 14.707290
666 1 1 7.955040 19.919699 14.948970
667 1 1 8.075730 20.141273 15.233117
668 1 1 7.989394 20.502568 15.313190
669 1 1 8.109374 20.828490 15.467396
670 1 1 8.033910 20.910181 15.830758
671 1 1 8.205834 21.197722 16.010097
672 1 1 8.201255 21.546657 15.859687
673 1 1 8.192485 21.677768 15.503129
674 1 1 8.412554 21.971387 15.404352
675 1 1 8.351474 22.211696 15.116392
676 1 1 8.496608 22.210561 14.765201
677 1 1 8.674050 22.545262 14.735385
678 1 1 9.045545 22.620157 14.763348
679 1 1 9.329691 22.640367 15.014849
680 1 1 9.681288 22.784454 15.010567
681 1 1 9.896624 23.044333 15.185190
682 1 1 10.255561 23.001328 15.068080
683 1 1 10.632246 23.051403 15.069006
684 1 1 10.863156 23.347397 15.127896
685 1 1 11.095843 23.354768 15.428233
686 1 1 11.110361 23.405302 15.804578
687 1 1 11.368037 23.479402 16.073860
688 1 1 11.738989 23.560959 16.085823
689 1 1 11.889749 23.675850 15.756473
690 1 1 12.012978 23.993752 15.588684
691 1 1 12.145556 24.348883 15.615235
692 1 1 11.913710 24.646752 15.659073
693 1 1 11.935853 25.018633 15.734002
694 1 1 12.079269 25.340474 15.591700
695 1 1 12.376559 25.418122 15.368117
696 1 1 12.697267 25.516653 15.546550
697 1 1 12.703028 25.843732 15.739904
698 1 1 12.886861 26.123050 15.559386
699 1 1 12.845346 26.402209 15.304932
700 1 1 13.031955 26.528766 14.999056
701 1 1 12.906551 26.541105 14.640556
702 1 1 12.622968 26.620570 14.400420
703 1 1 12.247631 26.669633 14.367026
704 1 1 12.186176 27.044344 14.352359
705 1 1 12.446910 27.317827 14.312049
706 1 1 12.515557 27.687110 14.254450
707 1 1 12.467272 28.034035 14.401797
708 1 1 12.652781 28.326425 14.245289
709 1 1 12.819795 28.655356 14.336454
710 1 1 13.020533 28.969088 14.261113
711 1 1 13.361270 28.985585 14.428523
712 1 1 13.728807 29.024869 14.340356
713 1 1 13.892533 29.325995 14.176293
714 1 1 14.066619 29.347108 13.839176
715 1 1 14.446275 29.348474 13.823064
716 1 1 14.683319 29.456849 14.099587
717 1 1 14.732931 29.832750 14.074344
718 1 1 14.612874 30.181306 13.982174
719 1 1 14.288848 30.371193 13.924296
720 1 1 14.337916 30.677910 13.705397
721 1 1 14.348109 31.048888 13.787074
722 1 1 14.553826 31.360216 13.858878
723 1 1 14.527832 31.673808 14.071913
724 1 1 14.854191 31.826860 14.192184
725 1 1 15.191398 31.975605 14.284739
726 1 1 15.371176 31.709045 14.487287
727 1 1 15.494512 31.369325 14.369903
728 1 1 15.596142 31.298585 14.010643
729 1 1 15.668709 31.111411 13.687998
730 1 1 15.860630 31.211437 13.375651
731 1 1 16.144914 31.386832 13.194489
732 1 1 16.196396 31.613357 12.893763
733 1 1 16.312072 31.973173 12.854373
734 1 1 16.260789 32.295401 12.659593
735 1 1 16.030972 32.597432 12.640588
736 1 1 16.125743 32.870889 12.394336
737 1 1 16.010513 33.119135 12.130715
738 1 1 15.844016 33.458982 12.096325
739 1 1 16.063876 33.754522 12.002957
740 1 1 16.090636 34.132449 12.032202
741 1 1 16.038352 34.367708 12.326004
742 1 1 15.810444 34.379901 12.629828
743 1 1 15.487775 34.578138 12.661237
744 1 1 15.192803 34.436566 12.854495
745 1 1 14.976820 34.154227 12.988795
746 1 1 14.611323 34.097228 12.901829
747 1 1 14.240477 34.034946 12.956548
748 1 1 13.886879 34.154183 12.884778
749 1 1 13.727876 34.477741 12.764660
750 1 1 13.670898 34.765109 12.522641
751 1 1 13.683630 35.109693 12.682328
752 1 1 13.724023 35.485059 12.639100
753 1 1 13.819229 35.827645 12.505046
754 1 1 14.064233 36.116534 12.474774
755 1 1 14.403497 36.234187 12.599101
756 1 1 14.512325 36.016318 12.890802
757 1 1 14.888664 35.964859 12.879837
758 1 1 15.047171 35.667942 12.703439
759 1 1 15.035353 35.654257 12.323870
760 1 1 14.904327 35.722352 11.973734
761 1 1 14.721769 35.701714 11.641098
762 1 1 14.441369 35.715919 11.385023
763 1 1 14.310046 35.431701 11.169676
764 1 1 13.975415 35.315078 11.306867
765 1 1 13.785929 34.990307 11.251925
766 1 1 13.863319 34.739153 11.526392
767 1 1 13.538450 34.602901 11.668853
768 1 1 13.447913 34.234781 11.642568
769 1 1 13.342137 33.921875 11.830455
770 1 1 13.434662 33.561824 11.909209
771 1 1 13.205483 33.338645 11.704103
772 1 1 12.912666 33.189067 11.894589
773 1 1 12.870801 32.814596 11.845413
774 1 1 12.883767 32.608990 11.526104
775 1 1 12.775822 32.687267 11.170266
776 1 1 12.709787 32.744382 10.800432
777 1 1 12.484775 32.762259 10.494736
778 1 1 12.592058 32.813793 10.133855
779 1 1 12.709260 32.833534 9.772920
780 1 1 12.483713 32.695151 9.500195
781 1 1 12.156986 32.684116 9.306475
782 1 1 12.180476 32.541664 8.954970
783 1 1 12.044796 32.215181 8.815688
784 1 1 11.798430 32.058827 8.572259
785 1 1 11.466874 31.953407 8.725090
786 1 1 11.135812 32.011302 8.547761
787 1 1 11.223745 32.103590 8.189779
788 1 1 11.084851 32.453250 8.136426
789 1 1 11.116718 32.620024 7.796469
790 1 1 10.970863 32.837213 7.520869
791 1 1 10.940408 32.954242 7.160623
792 1 1 10.645413 33.005146 6.926558
793 1 1 10.354170 33.169949 7.106606
794 1 1 10.117770 32.975681 7.331939
795 1 1 9.752851 33.052701 7.404751
796 1 1 9.520063 33.149087 7.689215
797 1 1 9.514916 33.487561 7.861867
798 1 1 9.172768 33.631142 7.779896
799 1 1 9.209949 34.007110 7.739084
800 1 1 9.042182 34.324207 7.864399
801 1 1 8.922481 34.681618 7.912662
802 1 1 8.989036 35.050510 7.975024
803 1 1 9.246158 35.069914 8.254151
804 1 1 9.419309 35.391418 8.359289
805 1 1 9.796311 35.349120 8.381205
806 1 1 10.000142 35.117510 8.603038
807 1 1 10.173782 35.067812 8.937372
808 1 1 10.277579 34.950487 9.283582