LAMMPS data file for polymer system

27000 atoms
26940 bonds

1 atom types
1 bond types

0.0 42.1940968663639 xlo xhi
0.0 42.1940968663639 ylo yhi
0.0 42.1940968663639 zlo zhi

Masses

1 5.65487

Atoms

1 1 1 29.913745 28.980554 7.084893
2 1 1 29.871389 29.332740 7.221169
3 1 1 30.049659 29.668301 7.225485
4 1 1 30.058359 29.986898 7.018555
5 1 1 29.724098 30.167605 7.022408
6 1 1 29.703707 30.432268 7.294322
7 1 1 29.758370 30.729303 7.524936
8 1 1 29.898478 31.012632 7.735872
9 1 1 30.271676 30.994961 7.805232
10 1 1 30.483043 31.244613 7.611846
11 1 1 30.525399 31.334897 7.245165
12 1 1 30.255848 31.192128 7.018540
13 1 1 29.942321 31.390398 6.936142
14 1 1 29.591036 31.509876 6.854140
15 1 1 29.320368 31.532168 6.588355
16 1 1 29.078140 31.239529 6.597747
17 1 1 28.978346 31.054377 6.914227
18 1 1 28.856405 31.151293 7.260837
19 1 1 28.712220 31.385419 7.523126
20 1 1 28.784788 31.664092 7.771068
21 1 1 28.613081 31.970961 7.915109
22 1 1 28.429770 32.303183 7.935736
23 1 1 28.056280 32.233748 7.944931
24 1 1 27.964621 31.935734 8.162155
25 1 1 28.139825 31.649372 8.340201
26 1 1 28.112443 31.275355 8.401535
27 1 1 28.054715 30.941415 8.229628
28 1 1 28.122263 30.888925 7.859382
29 1 1 28.034054 30.769629 7.509543
30 1 1 27.958522 30.958635 7.188651
31 1 1 27.775375 31.017194 6.860889
32 1 1 27.844288 31.309060 6.627510
33 1 1 27.952153 31.252599 6.267542
34 1 1 28.276181 31.147852 6.098918
35 1 1 28.583483 31.302095 6.260704
36 1 1 28.692812 31.647144 6.144997
37 1 1 29.028130 31.706847 5.976481
38 1 1 29.085794 32.075159 5.902856
39 1 1 29.457901 32.143243 5.938928
40 1 1 29.701162 32.368793 6.124270
41 1 1 29.896516 32.691481 6.170192
42 1 1 29.967129 33.048984 6.277919
43 1 1 30.129702 33.181292 6.594881
44 1 1 30.260235 32.952517 6.868784
45 1 1 30.127973 33.009737 7.220398
46 1 1 29.854110 32.898792 7.459335
47 1 1 29.653020 33.012786 7.760944
48 1 1 29.691981 32.882813 8.115894
49 1 1 29.731271 32.987625 8.479034
50 1 1 29.607737 32.693478 8.685472
51 1 1 29.517299 32.324467 8.692640
52 1 1 29.666085 32.088276 8.434809
53 1 1 29.590372 31.995468 8.074179
54 1 1 29.756188 31.840594 7.769353
55 1 1 30.090474 31.828186 7.589079
56 1 1 30.405893 31.960260 7.423346
57 1 1 30.396290 32.218957 7.145167
58 1 1 30.244559 32.302059 6.806830
59 1 1 29.882183 32.276069 6.695438
60 1 1 29.641710 32.391870 6.965925
61 1 1 29.384509 32.242047 7.202146
62 1 1 29.189252 32.351895 7.509079
63 1 1 29.063631 32.703286 7.580801
64 1 1 28.747402 32.902600 7.512443
65 1 1 28.615853 33.136705 7.781312
66 1 1 28.400372 33.047937 8.081459
67 1 1 28.467437 33.255793 8.392422
68 1 1 28.677613 33.295961 8.706449
69 1 1 28.476279 33.191324 9.011269
70 1 1 28.418074 32.818058 9.052314
71 1 1 28.570214 32.543893 9.266992
72 1 1 28.552810 32.481914 9.641499
73 1 1 28.769495 32.366107 9.931390
74 1 1 29.036150 32.109084 10.016447
75 1 1 29.007517 31.730910 9.992687
76 1 1 28.651229 31.604627 10.031562
77 1 1 28.384015 31.602678 9.761390
78 1 1 28.070095 31.815515 9.737832
79 1 1 27.847744 32.093085 9.603987
80 1 1 27.844687 32.430184 9.428616
81 1 1 27.835740 32.483588 9.052494
82 1 1 28.123347 32.297931 8.887528
83 1 1 28.433293 32.225025 8.680119
84 1 1 28.739424 32.033033 8.562550
85 1 1 29.034128 31.812288 8.656473
86 1 1 29.168453 31.571963 8.918390
87 1 1 29.304034 31.250277 8.768272
88 1 1 29.354410 31.093600 8.425760
89 1 1 29.173339 30.975629 8.113196
90 1 1 29.147527 30.648506 7.921560
91 1 1 29.074082 30.325673 8.108066
92 1 1 29.087327 30.412886 8.477685
93 1 1 29.099303 30.392010 8.856922
94 1 1 29.106420 30.478960 9.226772
95 1 1 29.074324 30.845906 9.320154
96 1 1 29.104783 31.055472 9.635676
97 1 1 28.827310 30.961871 9.877849
98 1 1 28.484705 30.951335 9.713803
99 1 1 28.182655 31.052333 9.921082
100 1 1 27.917744 31.264548 10.091925
101 1 1 27.670527 31.358552 9.819075
102 1 1 27.320037 31.490699 9.755091
103 1 1 27.093137 31.187012 9.728820
104 1 1 26.810361 31.121243 9.483642
105 1 1 26.452378 30.993857 9.479065
106 1 1 26.348725 30.895468 9.831167
107 1 1 26.420736 30.737989 10.169420
108 1 1 26.382621 30.400372 10.339601
109 1 1 26.571259 30.070584 10.332136
110 1 1 26.907606 30.073865 10.508940
111 1 1 27.224989 30.181484 10.688067
112 1 1 27.534545 30.077139 10.493936
113 1 1 27.794980 29.867777 10.312991
114 1 1 28.123518 30.057733 10.293511
115 1 1 28.320260 30.091705 9.970187
116 1 1 28.508590 29.821859 9.780147
117 1 1 28.747338 29.901232 9.495368
118 1 1 29.088909 29.948877 9.654927
119 1 1 29.462602 30.017121 9.664760
120 1 1 29.626592 29.938752 9.331045
121 1 1 29.802040 29.612741 9.245406
122 1 1 29.997654 29.286965 9.242965
123 1 1 30.293267 29.110122 9.082531
124 1 1 30.532448 29.037898 9.368845
125 1 1 30.773607 29.201852 9.612488
126 1 1 30.953180 29.517122 9.725441
127 1 1 31.184641 29.543969 10.025616
128 1 1 31.523966 29.710763 10.063537
129 1 1 31.871366 29.631182 10.195372
130 1 1 32.227390 29.514293 10.258492
131 1 1 32.574211 29.619512 10.144282
132 1 1 32.886440 29.554563 10.350908
133 1 1 33.240982 29.657194 10.441280
134 1 1 33.546488 29.624249 10.664844
135 1 1 33.538916 29.856994 10.965132
136 1 1 33.661928 30.093368 11.236047
137 1 1 33.785850 30.452044 11.216176
138 1 1 33.701372 30.806791 11.109322
139 1 1 33.536999 31.125528 11.234974
140 1 1 33.712371 31.453420 11.313279
141 1 1 33.563685 31.773533 11.172495
142 1 1 33.748336 31.849683 10.849223
143 1 1 33.683641 31.578339 10.591178
144 1 1 33.566002 31.471798 10.245910
145 1 1 33.561910 31.302926 9.905520
146 1 1 33.836560 31.333318 9.644669
147 1 1 34.112284 31.081346 9.714574
148 1 1 34.436994 31.250857 9.815714
149 1 1 34.549277 31.529179 10.048801
150 1 1 34.393572 31.521810 10.395358
151 1 1 34.424809 31.808606 10.642687
152 1 1 34.460193 32.169259 10.528331
153 1 1 34.195809 32.427093 10.438761
154 1 1 34.141997 32.803103 10.449734
155 1 1 33.896795 32.924441 10.186004
156 1 1 33.665090 32.642861 10.079113
157 1 1 33.549722 32.286318 10.016126
158 1 1 33.812138 32.102682 9.811637
159 1 1 34.003136 32.232469 9.509851
160 1 1 33.986119 31.981126 9.225356
161 1 1 34.341571 31.854591 9.180158
162 1 1 34.642620 32.076096 9.111562
163 1 1 35.005973 31.966227 9.094168
164 1 1 35.284442 32.085456 8.864734
165 1 1 35.550226 32.041575 8.596717
166 1 1 35.535330 32.084969 8.219497
167 1 1 35.569139 31.757623 8.029492
168 1 1 35.282907 31.511795 8.074657
169 1 1 34.908903 31.577524 8.060486
170 1 1 34.653294 31.830140 7.937000
171 1 1 34.694572 31.936062 7.574403
172 1 1 34.732694 32.248579 7.361611
173 1 1 34.523593 32.363625 7.065908
174 1 1 34.151872 32.293485 7.102020
175 1 1 33.906132 32.078465 6.907654
176 1 1 33.526465 32.062562 6.908252
177 1 1 33.152060 32.118298 6.941633
178 1 1 33.035957 32.134699 7.303089
179 1 1 33.241920 31.868929 7.480135
180 1 1 33.420896 31.578363 7.312984
181 1 1 33.770924 31.554289 7.167036
182 1 1 33.961530 31.332377 6.924499
183 1 1 34.078544 31.459513 6.586055
184 1 1 34.416448 31.612734 6.503931
185 1 1 34.528508 31.915214 6.303062
186 1 1 34.416244 32.234200 6.476396
187 1 1 34.717767 32.465262 6.486074
188 1 1 35.009059 32.502682 6.244934
189 1 1 35.356266 32.608268 6.357623
190 1 1 35.730250 32.615317 6.290641
191 1 1 36.061661 32.579021 6.108297
192 1 1 36.196349 32.280020 5.916313
193 1 1 36.051162 31.967122 5.756890
194 1 1 35.951080 31.777868 5.442937
195 1 1 35.660259 31.683395 5.217331
196 1 1 35.618002 31.510581 4.881549
197 1 1 35.871175 31.414392 4.614995
198 1 1 36.137791 31.425812 4.344466
199 1 1 36.386798 31.710142 4.383859
200 1 1 36.350465 32.028916 4.587483
201 1 1 36.409473 32.206535 4.918194
202 1 1 36.721837 32.415740 4.973531
203 1 1 36.739034 32.791911 5.024517
204 1 1 36.829448 33.158715 5.065508
205 1 1 36.872479 33.256458 5.430192
206 1 1 37.068182 33.021706 5.656006
207 1 1 37.378475 32.805749 5.694492
208 1 1 37.321938 32.435246 5.631793
209 1 1 37.359920 32.159169 5.373454
210 1 1 37.591902 32.217961 5.078279
211 1 1 37.805683 32.521084 4.995731
212 1 1 37.655649 32.710308 4.702330
213 1 1 37.312671 32.592430 4.588880
214 1 1 37.161282 32.645733 4.244438
215 1 1 36.783573 32.686933 4.250653
216 1 1 36.498168 32.933586 4.204757
217 1 1 36.288839 33.162502 4.424254
218 1 1 36.020775 33.370467 4.253104
219 1 1 35.694128 33.548671 4.175998
220 1 1 35.388167 33.440329 3.978388
221 1 1 35.019617 33.392300 4.057534
222 1 1 34.716127 33.563126 4.209561
223 1 1 34.370208 33.665606 4.328884
224 1 1 33.992959 33.690758 4.290796
225 1 1 33.827197 34.009750 4.413949
226 1 1 33.665093 34.264021 4.182717
227 1 1 33.453607 34.559728 4.293313
228 1 1 33.558009 34.832312 4.536620
229 1 1 33.286867 35.094954 4.580224
230 1 1 33.028680 35.150686 4.307034
231 1 1 32.689861 35.274012 4.427002
232 1 1 32.530231 35.596021 4.550405
233 1 1 32.160446 35.645333 4.478103
234 1 1 32.114817 36.009510 4.379647
235 1 1 32.032994 36.370284 4.292776
236 1 1 32.284055 36.620785 4.156329
237 1 1 32.500634 36.849439 3.943701
238 1 1 32.621043 37.173416 3.785775
239 1 1 32.859290 37.459861 3.711024
240 1 1 32.767580 37.798278 3.857528
241 1 1 32.574975 38.115929 3.777521
242 1 1 32.372464 38.124811 3.456101
243 1 1 32.019596 38.212369 3.345568
244 1 1 31.737423 38.003894 3.491571
245 1 1 31.485644 37.724128 3.439243
246 1 1 31.385701 37.442842 3.674381
247 1 1 31.187686 37.234543 3.922980
248 1 1 31.272804 36.868412 3.867276
249 1 1 31.403742 36.654985 3.581437
250 1 1 31.593723 36.772107 3.273883
251 1 1 31.858019 37.000747 3.124646
252 1 1 32.198728 36.854967 3.040588
253 1 1 32.562119 36.872556 2.930872
254 1 1 32.551634 36.959160 2.561021
255 1 1 32.525405 36.687056 2.297068
256 1 1 32.818790 36.747463 2.063238
257 1 1 33.165811 36.774368 2.215724
258 1 1 33.400396 36.498720 2.331432
259 1 1 33.581033 36.551488 2.661562
260 1 1 33.797845 36.307144 2.855698
261 1 1 34.101025 36.508076 2.965737
262 1 1 34.338645 36.416414 3.247756
263 1 1 34.469340 36.662038 3.506576
264 1 1 34.652598 36.736153 3.831111
265 1 1 34.873738 36.779834 4.137035
266 1 1 35.165541 37.020644 4.101526
267 1 1 35.252461 37.390067 4.082233
268 1 1 35.058194 37.582113 3.818077
269 1 1 34.829491 37.875999 3.742407
270 1 1 34.781971 37.998434 3.385824
271 1 1 34.625045 37.966151 3.041248
272 1 1 34.456363 37.884202 2.710747
273 1 1 34.110555 38.026410 2.642976
274 1 1 33.887496 38.001296 2.949594
275 1 1 33.828946 37.643200 3.062463
276 1 1 33.648347 37.637091 3.396748
277 1 1 33.607582 37.403333 3.693557
278 1 1 33.787005 37.085655 3.799802
279 1 1 33.910381 37.122788 4.157293
280 1 1 33.651891 37.109118 4.435494
281 1 1 33.319439 37.064601 4.614082
282 1 1 33.199755 36.788011 4.845541
283 1 1 33.382318 36.485389 4.985150
284 1 1 33.501234 36.218372 4.742330
285 1 1 33.811167 36.358134 4.572600
286 1 1 33.745909 36.319842 4.200209
287 1 1 33.764377 36.413050 3.832281
288 1 1 33.738162 36.504956 3.464496
289 1 1 33.466863 36.723177 3.312258
290 1 1 33.088928 36.690212 3.290398
291 1 1 32.845985 36.509304 3.519858
292 1 1 32.572370 36.268520 3.627364
293 1 1 32.650523 35.925463 3.770905
294 1 1 32.908572 35.852869 4.040239
295 1 1 33.118023 35.756419 4.342278
296 1 1 33.096893 35.741213 4.721385
297 1 1 32.936038 35.659189 5.055746
298 1 1 33.151894 35.803637 5.333129
299 1 1 33.417305 35.540257 5.400861
300 1 1 33.740946 35.373705 5.291694
301 1 1 34.064457 35.189207 5.216189
302 1 1 34.307642 34.989773 5.002912
303 1 1 34.386937 35.057493 4.637500
304 1 1 34.200615 35.330674 4.450266
305 1 1 33.890413 35.548784 4.474809
306 1 1 33.953837 35.798404 4.754215
307 1 1 34.178168 35.899069 5.043943
308 1 1 34.396006 36.206740 4.996135
309 1 1 34.734237 36.322684 4.867464
310 1 1 34.987713 36.381108 5.144477
311 1 1 35.194616 36.684954 5.048203
312 1 1 35.552649 36.806006 5.008715
313 1 1 35.523264 37.184685 4.996925
314 1 1 35.184782 37.261114 4.842044
315 1 1 34.936986 37.544404 4.789661
316 1 1 34.690509 37.826477 4.725751
317 1 1 34.601355 37.909878 4.365896
318 1 1 34.370849 37.676236 4.174381
319 1 1 34.010443 37.781286 4.115452
320 1 1 33.672717 37.910017 4.232795
321 1 1 33.416817 38.052352 3.990606
322 1 1 33.505312 38.240909 3.672777
323 1 1 33.755609 38.465430 3.495741
324 1 1 34.007030 38.653817 3.281971
325 1 1 34.311353 38.715777 3.063000
326 1 1 34.681171 38.802603 3.053198
327 1 1 34.856083 38.796768 2.715897
328 1 1 35.143828 38.780453 2.468234
329 1 1 35.392160 38.995797 2.277556
330 1 1 35.338624 38.952460 1.903850
331 1 1 34.992451 38.874835 1.767694
332 1 1 34.859807 38.767263 1.428233
333 1 1 34.657373 38.735563 1.108209
334 1 1 34.747078 38.675734 0.743828
335 1 1 34.960273 38.958024 0.605046
336 1 1 35.165572 39.019028 0.291150
337 1 1 35.396210 39.181186 0.036373
338 1 1 35.723516 39.330912 0.158245
339 1 1 36.070077 39.399509 0.298208
340 1 1 36.294216 39.700811 0.240077
341 1 1 36.256214 39.971995 42.170706
342 1 1 36.542716 39.832895 41.963419
343 1 1 36.493637 39.649234 41.634390
344 1 1 36.667761 39.533617 41.317036
345 1 1 36.918913 39.272036 41.430604
346 1 1 37.236800 39.111644 41.563352
347 1 1 37.546851 39.049455 41.352637
348 1 1 37.921745 39.094566 41.309983
349 1 1 38.103667 39.258864 41.019621
350 1 1 38.116339 39.638172 41.038726
351 1 1 37.783641 39.786953 40.931133
352 1 1 37.604194 40.044052 41.145840
353 1 1 37.644735 40.203451 41.488401
354 1 1 37.660947 40.581358 41.524783
355 1 1 37.660813 40.961258 41.516043
356 1 1 37.386768 41.175973 41.363738
357 1 1 37.271419 41.360313 41.052107
358 1 1 37.227005 41.707024 40.903049
359 1 1 37.174292 41.850874 40.555301
360 1 1 37.477601 41.921408 40.337519
361 1 1 37.444242 0.105025 40.312620
362 1 1 37.729663 0.323250 40.188878
363 1 1 37.736234 0.679522 40.056864
364 1 1 37.410949 0.796947 39.899379
365 1 1 37.188291 1.089041 39.801889
366 1 1 37.210643 1.398810 39.582929
367 1 1 37.418992 1.662198 39.760742
368 1 1 37.463317 1.949550 39.516071
369 1 1 37.278685 2.003605 39.188368
370 1 1 37.060542 2.007782 38.877247
371 1 1 37.166065 1.790825 38.583657
372 1 1 37.038531 1.434121 38.613603
373 1 1 37.227440 1.104898 38.631650
374 1 1 37.077915 0.905776 38.918691
375 1 1 37.083045 0.538282 38.822140
376 1 1 36.854445 0.247448 38.735205
377 1 1 36.766693 0.041029 39.041947
378 1 1 36.451974 42.118406 39.220073
379 1 1 36.742857 42.177896 38.982906
380 1 1 36.962916 42.005807 38.725302
381 1 1 36.976444 41.718295 38.477202
382 1 1 37.259075 41.485639 38.579134
383 1 1 37.131603 41.140480 38.674090
384 1 1 37.024598 40.801276 38.540336
385 1 1 36.864189 40.495375 38.381926
386 1 1 36.597409 40.445741 38.115909
387 1 1 36.252361 40.587979 38.187392
388 1 1 35.987783 40.676030 37.929234
389 1 1 36.113229 40.881589 37.635281
390 1 1 35.826616 40.898342 37.386339
391 1 1 35.538803 40.655247 37.336655
392 1 1 35.488317 40.304029 37.200651
393 1 1 35.727668 40.046002 37.057356
394 1 1 36.082927 40.163793 36.991658
395 1 1 36.406972 40.327651 36.879653
396 1 1 36.555189 40.585795 36.643447
397 1 1 36.581805 40.938841 36.505423
398 1 1 36.605832 41.316260 36.468311
399 1 1 36.469202 41.412143 36.126933
400 1 1 36.534567 41.633676 35.825188
401 1 1 36.559245 41.951187 35.617877
402 1 1 36.564815 41.941843 35.238033
403 1 1 36.454178 0.007540 35.492329
404 1 1 36.509035 0.028539 35.867761
405 1 1 36.615044 0.045817 36.232266
406 1 1 36.533001 42.075218 36.564748
407 1 1 36.748211 41.915965 36.834420
408 1 1 37.047582 41.739457 36.988114
409 1 1 37.404781 41.705559 37.113255
410 1 1 37.768882 41.606941 37.159136
411 1 1 38.137679 41.621185 37.068660
412 1 1 38.333440 41.799095 37.341471
413 1 1 38.654431 41.641419 37.469936
414 1 1 38.803329 41.633027 37.819448
415 1 1 39.115771 41.705036 38.023396
416 1 1 39.187826 42.067149 38.113298
417 1 1 38.927617 0.096532 37.949748
418 1 1 39.150634 0.387107 38.050888
419 1 1 39.528386 0.391706 38.091910
420 1 1 39.905595 0.412074 38.050698
421 1 1 40.034326 0.180835 37.778014
422 1 1 39.918345 0.255046 37.423837
423 1 1 39.820179 0.231794 37.057473
424 1 1 39.820279 0.036379 36.731569
425 1 1 40.055644 41.994563 36.548954
426 1 1 39.714667 41.875425 36.430883
427 1 1 39.743795 41.706840 36.091574
428 1 1 40.097010 41.638221 35.969384
429 1 1 40.360436 41.455627 36.173509
430 1 1 40.423135 41.228186 36.471400
431 1 1 40.399450 40.850485 36.505767
432 1 1 40.229460 40.596769 36.731890
433 1 1 40.030799 40.742981 37.020950
434 1 1 40.198838 40.819527 37.353070
435 1 1 40.120150 41.039397 37.652846
436 1 1 40.110176 41.125843 38.022748
437 1 1 39.832301 40.943800 38.207263
438 1 1 39.556724 40.695990 38.291213
439 1 1 39.580831 40.330893 38.393797
440 1 1 39.613511 40.012323 38.189237
441 1 1 39.789923 40.088729 37.861456
442 1 1 39.954617 39.951690 37.547615
443 1 1 40.326047 39.916177 37.475653
444 1 1 40.504242 39.655800 37.687431
445 1 1 40.853021 39.768645 37.787527
446 1 1 41.232056 39.776072 37.813544
447 1 1 41.397634 40.117493 37.833943
448 1 1 41.377159 40.407963 37.589796
449 1 1 41.216457 40.418735 37.245617
450 1 1 41.056521 40.102777 37.107810
451 1 1 6.335471 24.891109 40.574301
452 1 1 6.576498 25.085441 40.794620
453 1 1 6.741702 25.010028 41.128417
454 1 1 6.935792 24.988549 41.454405
455 1 1 6.960227 24.936170 41.829983
456 1 1 6.687011 24.878419 42.087700
457 1 1 6.712597 25.136258 0.171569
458 1 1 6.824461 25.174870 0.532672
459 1 1 6.551873 25.162596 0.797143
460 1 1 6.204594 25.153831 0.643128
461 1 1 5.975780 25.457185 0.638571
462 1 1 5.775340 25.668660 0.394642
463 1 1 5.878410 25.626919 0.031277
464 1 1 6.113864 25.387733 42.047184
465 1 1 5.934948 25.052506 42.043755
466 1 1 5.736343 24.785829 0.033613
467 1 1 5.466674 25.051834 0.003284
468 1 1 5.478564 25.431225 42.179466
469 1 1 5.446333 25.783953 42.041827
470 1 1 5.349941 26.095878 0.042181
471 1 1 5.679264 26.258988 0.138832
472 1 1 5.821902 26.601868 0.058287
473 1 1 5.600107 26.886774 0.176760
474 1 1 5.505280 27.084908 42.060776
475 1 1 5.403830 27.419419 41.911744
476 1 1 5.178673 27.416595 41.605646
477 1 1 4.915907 27.162064 41.502844
478 1 1 4.914045 26.842508 41.297221
479 1 1 4.648492 26.574526 41.251756
480 1 1 4.438015 26.380732 41.001669
481 1 1 4.627281 26.292574 40.684168
482 1 1 4.551993 25.959954 40.516551
483 1 1 4.643556 25.592842 40.481267
484 1 1 4.652123 25.444806 40.831142
485 1 1 4.664728 25.684142 41.126031
486 1 1 4.348840 25.805911 41.298621
487 1 1 4.026974 25.624943 41.208883
488 1 1 3.650573 25.573572 41.218023
489 1 1 3.307636 25.411076 41.237749
490 1 1 3.159483 25.461140 40.891419
491 1 1 2.796375 25.375298 40.819424
492 1 1 2.544463 25.659723 40.812858
493 1 1 2.523424 25.876958 41.123931
494 1 1 2.738483 26.189198 41.098321
495 1 1 2.543830 26.509564 41.160573
496 1 1 2.294394 26.613189 40.893284
497 1 1 1.929760 26.593666 40.998457
498 1 1 1.912298 26.339696 41.280581
499 1 1 1.666913 26.050559 41.256377
500 1 1 1.315660 25.978771 41.382345
501 1 1 1.044268 26.161968 41.189509
502 1 1 0.741369 26.116889 40.964521
503 1 1 0.501695 25.895119 41.158878
504 1 1 0.294863 25.595924 41.268889
505 1 1 42.193914 25.532838 41.499904
506 1 1 42.145957 25.901607 41.578068
507 1 1 42.168008 26.220077 41.784199
508 1 1 0.157119 26.550080 41.828169
509 1 1 0.153367 26.880069 42.016566
510 1 1 0.077744 26.616120 0.085171
511 1 1 0.047789 26.988374 0.014955
512 1 1 42.144118 27.323963 0.164022
513 1 1 41.807017 27.152347 0.200228
514 1 1 41.562015 26.912490 0.364065
515 1 1 41.541778 26.754066 0.708873
516 1 1 41.799813 26.536598 0.883590
517 1 1 42.017563 26.686136 1.156763
518 1 1 0.157977 26.630864 1.328365
519 1 1 0.116042 26.820971 1.654709
520 1 1 0.357341 27.098621 1.750028
521 1 1 0.647623 26.955287 1.949005
522 1 1 0.583422 27.065049 2.307097
523 1 1 0.869748 27.234117 2.491036
524 1 1 0.770869 27.549286 2.678896
525 1 1 0.696768 27.891639 2.531576
526 1 1 0.848321 28.230819 2.451648
527 1 1 0.860454 28.518892 2.699170
528 1 1 1.129333 28.652990 2.931810
529 1 1 1.408766 28.856829 2.774436
530 1 1 1.420719 28.841911 2.394917
531 1 1 1.111261 29.007985 2.249813
532 1 1 1.118798 29.266937 1.971808
533 1 1 1.201203 29.602718 1.814134
534 1 1 1.516759 29.786164 1.708439
535 1 1 1.439694 30.150980 1.635157
536 1 1 1.284202 30.411864 1.863547
537 1 1 0.935054 30.550200 1.921506
538 1 1 0.565635 30.469729 1.883378
539 1 1 0.234121 30.559767 1.720922
540 1 1 42.139494 30.696825 1.515367
541 1 1 41.978896 30.352865 1.498058
542 1 1 41.603763 30.395861 1.540795
543 1 1 41.405428 30.583755 1.804914
544 1 1 41.632181 30.789015 2.030416
545 1 1 41.915437 30.946252 2.229017
546 1 1 0.003510 30.862262 2.469280
547 1 1 0.074410 31.235480 2.478295
548 1 1 0.330545 31.318536 2.746431
549 1 1 42.145424 31.328496 2.768671
550 1 1 41.900529 31.514123 2.992209
551 1 1 41.526106 31.506250 3.056592
552 1 1 41.451212 31.764931 3.324687
553 1 1 41.146382 31.989496 3.357087
554 1 1 41.233169 32.359408 3.351328
555 1 1 41.159158 32.711975 3.472236
556 1 1 40.967172 32.881694 3.191635
557 1 1 40.660147 32.834193 2.972822
558 1 1 40.707269 32.492072 2.814289
559 1 1 40.571775 32.465164 2.460288
560 1 1 40.403358 32.135673 2.373854
561 1 1 40.163964 32.025466 2.647615
562 1 1 40.117581 32.200792 2.981546
563 1 1 39.899584 32.420824 3.201690
564 1 1 39.785011 32.686575 3.447960
565 1 1 39.832364 33.063380 3.461223
566 1 1 39.689041 33.398862 3.567571
567 1 1 39.687499 33.653099 3.849992
568 1 1 40.005563 33.828092 3.962296
569 1 1 40.249513 33.834670 3.671013
570 1 1 40.487341 34.129817 3.644060
571 1 1 40.580891 34.278901 3.307278
572 1 1 40.403719 34.492236 3.047474
573 1 1 40.075908 34.429820 2.865694
574 1 1 40.024952 34.075465 2.738273
575 1 1 40.349198 33.916124 2.620481
576 1 1 40.615688 33.772113 2.391038
577 1 1 40.974285 33.647437 2.407299
578 1 1 41.169268 33.458096 2.672877
579 1 1 41.518695 33.308764 2.672125
580 1 1 41.822452 33.534589 2.705807
581 1 1 42.058717 33.536885 3.003420
582 1 1 0.074110 33.814272 3.156945
583 1 1 0.417388 33.692538 3.048592
584 1 1 0.788647 33.621831 3.008997
585 1 1 0.892456 33.278599 3.134758
586 1 1 1.161658 33.021370 3.210676
587 1 1 1.446530 32.910147 3.436235
588 1 1 1.535158 32.978451 3.799388
589 1 1 1.528470 33.075384 4.166756
590 1 1 1.478966 33.081860 4.543462
591 1 1 1.396516 33.024703 4.909979
592 1 1 1.231917 32.780449 5.150078
593 1 1 1.226561 32.566400 5.464011
594 1 1 1.370146 32.214595 5.468037
595 1 1 1.393179 31.986197 5.165210
596 1 1 1.595411 32.039791 4.847987
597 1 1 1.832411 31.915918 4.578012
598 1 1 2.042223 31.972188 4.266223
599 1 1 2.421934 31.960359 4.257329
600 1 1 2.531916 32.246307 4.482134
601 1 1 2.677059 32.566263 4.337352
602 1 1 2.741785 32.896285 4.160445
603 1 1 2.449973 33.066064 3.986031
604 1 1 2.537008 33.302804 3.701814
605 1 1 2.304295 33.600750 3.663430
606 1 1 2.261250 33.896486 3.898137
607 1 1 2.094535 34.183663 3.713378
608 1 1 2.350339 34.433242 3.584249
609 1 1 2.547356 34.715346 3.422998
610 1 1 2.408965 35.042149 3.558821
611 1 1 2.593250 35.345218 3.422483
612 1 1 2.564694 35.488560 3.071716
613 1 1 2.768603 35.695198 2.826518
614 1 1 3.142291 35.724080 2.889151
615 1 1 3.480081 35.648245 2.732477
616 1 1 3.526199 35.662812 2.355568
617 1 1 3.742849 35.384567 2.213996
618 1 1 4.062013 35.470421 2.026475
619 1 1 4.032640 35.389069 1.656449
620 1 1 4.128913 35.541120 1.321767
621 1 1 4.358688 35.574727 1.020978
622 1 1 4.187417 35.812098 0.778655
623 1 1 4.255916 35.912762 0.418690
624 1 1 4.628643 35.872763 0.356444
625 1 1 5.005560 35.852751 0.400414
626 1 1 5.100431 36.085608 0.685330
627 1 1 5.285448 36.162716 1.008166
628 1 1 5.330739 36.519663 1.130387
629 1 1 5.661197 36.647547 1.267657
630 1 1 5.629282 36.826951 1.601117
631 1 1 5.864143 37.121557 1.650592
632 1 1 6.115758 37.100217 1.934555
633 1 1 6.461833 37.237363 1.858248
634 1 1 6.732351 37.359574 2.095492
635 1 1 6.648770 37.445445 2.456103
636 1 1 6.740485 37.268792 2.779803
637 1 1 6.862097 37.490248 3.063648
638 1 1 6.898302 37.400573 3.431137
639 1 1 6.818685 37.098278 3.647190
640 1 1 7.030529 37.069885 3.961381
641 1 1 7.391399 36.954297 3.932886
642 1 1 7.733750 36.817048 4.024311
643 1 1 7.955529 36.538622 4.157325
644 1 1 8.139753 36.419592 4.467637
645 1 1 8.511773 36.422999 4.545029
646 1 1 8.543350 36.363075 4.918943
647 1 1 8.276869 36.357738 5.189793
648 1 1 8.215318 36.032600 5.376600
649 1 1 8.478741 35.832638 5.563745
650 1 1 8.750615 35.741201 5.314498
651 1 1 8.955501 35.430764 5.392282
652 1 1 8.981225 35.121043 5.610941
653 1 1 9.041236 34.752092 5.679301
654 1 1 9.337235 34.729212 5.916495
655 1 1 9.596386 34.466765 5.825048
656 1 1 9.414994 34.132942 5.832714
657 1 1 9.112236 33.973341 5.997835
658 1 1 8.972199 34.229705 6.240872
659 1 1 8.662258 34.200213 6.458741
660 1 1 8.366010 33.990451 6.346325
661 1 1 8.317842 33.688788 6.120319
662 1 1 8.047769 33.689009 5.852998
663 1 1 7.793545 33.969761 5.883801
664 1 1 7.911749 34.330196 5.861117
665 1 1 8.271308 34.372523 5.745680
666 1 1 8.370991 34.428112 5.383226
667 1 1 8.457701 34.418358 5.013379
668 1 1 8.808635 34.403916 4.868339
669 1 1 8.823144 34.124805 4.610877
670 1 1 8.527913 33.934005 4.466539
671 1 1 8.194883 33.752005 4.485700
672 1 1 7.900270 33.536584 4.591517
673 1 1 7.920067 33.181605 4.457360
674 1 1 7.937448 32.830473 4.313125
675 1 1 8.002840 32.550032 4.065179
676 1 1 7.873145 32.561684 3.708187
677 1 1 7.796842 32.860555 3.486255
678 1 1 7.467930 33.040477 3.424247
679 1 1 7.449525 33.418376 3.459654
680 1 1 7.254961 33.694646 3.633491
681 1 1 7.210844 33.899672 3.950380
682 1 1 7.144984 33.967078 4.318509
683 1 1 6.768615 33.991078 4.365090
684 1 1 6.577539 34.089292 4.678529
685 1 1 6.469069 34.319523 4.960714
686 1 1 6.403322 34.675207 4.844241
687 1 1 6.130736 34.939938 4.840437
688 1 1 6.032846 34.977859 4.475225
689 1 1 5.653850 35.005030 4.470332
690 1 1 5.481615 35.085661 4.141342
691 1 1 5.120407 35.116516 4.027428
692 1 1 4.996652 34.800397 3.856684
693 1 1 4.720530 34.661587 4.077792
694 1 1 4.840960 34.712815 4.434544
695 1 1 4.899926 34.624800 4.799477
696 1 1 4.590488 34.474818 4.961195
697 1 1 4.391764 34.157996 5.028524
698 1 1 4.105974 33.946840 5.163197
699 1 1 3.740702 34.047673 5.191639
700 1 1 3.694433 34.399828 5.056560
701 1 1 3.899644 34.718811 5.079766
702 1 1 3.858313 35.096326 5.066586
703 1 1 3.549415 35.177835 4.860824
704 1 1 3.227054 35.368855 4.924029
705 1 1 2.984056 35.317790 4.636376
706 1 1 2.930798 34.949984 4.557116
707 1 1 2.574495 34.861366 4.459162
708 1 1 2.453506 34.535859 4.304868
709 1 1 2.185532 34.292638 4.420772
710 1 1 2.107978 33.955773 4.578593
711 1 1 1.843716 33.804118 4.805675
712 1 1 1.634239 33.620684 5.064270
713 1 1 1.263558 33.688455 5.113288
714 1 1 0.975623 33.894088 4.974692
715 1 1 1.053795 34.258876 4.902453
716 1 1 1.198423 34.329532 4.558229
717 1 1 1.384274 34.658511 4.598635
718 1 1 1.115867 34.927421 4.605385
719 1 1 1.153474 35.094198 4.944754
720 1 1 1.322749 35.100608 5.284908
721 1 1 1.226512 35.239156 5.625411
722 1 1 0.965696 35.073817 5.846857
723 1 1 0.731548 34.856687 6.052840
724 1 1 0.619513 34.497529 5.999419
725 1 1 0.912995 34.256931 6.018943
726 1 1 1.105963 34.169251 6.334340
727 1 1 1.450714 34.009764 6.344856
728 1 1 1.688612 33.765531 6.177062
729 1 1 2.066991 33.749695 6.145777
730 1 1 2.381338 33.647188 6.333068
731 1 1 2.664281 33.614973 6.584674
732 1 1 2.720736 33.769777 6.927089
733 1 1 2.539682 33.909815 7.230419
734 1 1 2.486032 33.612751 7.461232
735 1 1 2.437951 33.563352 7.834927
736 1 1 2.663381 33.782264 8.048605
737 1 1 2.708650 33.655827 8.404083
738 1 1 3.064420 33.608005 8.528744
739 1 1 3.377038 33.397006 8.482379
740 1 1 3.476731 33.341568 8.119904
741 1 1 3.516365 33.171911 7.782197
742 1 1 3.877908 33.207863 7.670866
743 1 1 4.207965 33.020435 7.652622
744 1 1 4.581714 33.006587 7.585391
745 1 1 4.814267 33.231623 7.784585
746 1 1 4.976944 33.420396 8.071466
747 1 1 4.706150 33.554523 8.301857
748 1 1 4.458724 33.834944 8.369274
749 1 1 4.465550 34.058509 8.676475
750 1 1 4.596069 34.399573 8.781545
751 1 1 4.490068 34.610240 9.079510
752 1 1 4.724528 34.525087 9.366176
753 1 1 4.723675 34.353013 9.704982
754 1 1 4.859785 34.207177 10.028410
755 1 1 4.910763 33.885527 10.224223
756 1 1 5.155676 33.876347 10.514624
757 1 1 5.274021 33.986620 10.858476
758 1 1 5.284875 33.667505 11.064505
759 1 1 5.383319 33.368457 10.851717
760 1 1 5.344016 33.052943 10.643616
761 1 1 5.676879 32.869641 10.645214
762 1 1 5.665023 32.490808 10.672515
763 1 1 5.643261 32.120143 10.753348
764 1 1 5.863159 31.831756 10.866828
765 1 1 6.080085 31.946231 11.157066
766 1 1 6.263600 31.970603 11.488922
767 1 1 6.031149 32.160979 11.721568
768 1 1 6.184269 32.288745 12.045034
769 1 1 6.285306 32.013160 12.286373
770 1 1 6.330773 31.883337 12.640602
771 1 1 6.373313 32.151505 12.906452
772 1 1 6.432639 32.488032 13.072676
773 1 1 6.784043 32.608392 13.152853
774 1 1 6.978350 32.825494 12.908903
775 1 1 7.321997 32.799355 12.748829
776 1 1 7.618158 32.652970 12.936606
777 1 1 7.700516 32.283518 12.970111
778 1 1 7.662212 31.962228 13.169374
779 1 1 7.968358 31.877840 13.378069
780 1 1 8.080054 31.649904 13.660857
781 1 1 8.215268 31.875429 13.935185
782 1 1 8.322456 32.239940 13.941688
783 1 1 8.499480 32.477610 14.179544
784 1 1 8.876134 32.443277 14.216335
785 1 1 9.221631 32.519961 14.077948
786 1 1 9.481979 32.796101 14.058830
787 1 1 9.547350 33.022121 13.760431
788 1 1 9.496391 33.395891 13.714616
789 1 1 9.643998 33.705869 13.551747
790 1 1 9.915825 33.671618 13.288428
791 1 1 10.061906 33.320946 13.297876
792 1 1 9.968968 33.009907 13.100347
793 1 1 10.195179 32.948057 12.801343
794 1 1 9.993725 32.880643 12.486270
795 1 1 9.826780 32.801287 12.154258
796 1 1 9.468335 32.675693 12.166252
797 1 1 9.178699 32.543689 11.958681
798 1 1 9.027251 32.744063 11.673525
799 1 1 8.701817 32.938300 11.645879
800 1 1 8.567735 33.260195 11.494864
801 1 1 8.228480 33.363724 11.631199
802 1 1 7.968545 33.237904 11.878188
803 1 1 7.617273 33.264619 12.020646
804 1 1 7.517182 33.628479 11.976062
805 1 1 7.568078 34.002124 12.022951
806 1 1 7.447807 34.189994 11.715315
807 1 1 7.539616 34.457191 11.461195
808 1 1 7.413857 34.793450 11.585750
809 1 1 7.149292 34.756397 11.855995
810 1 1 6.921060 34.730338 12.158702