LAMMPS data file for polymer system

27000 atoms
26940 bonds

1 atom types
1 bond types

0.0 42.1940968663639 xlo xhi
0.0 42.1940968663639 ylo yhi
0.0 42.1940968663639 zlo zhi

Masses

1 5.65487

Atoms

1 1 1 16.217432 6.516034 33.698588
2 1 1 15.923748 6.485842 33.459343
3 1 1 15.813421 6.122253 33.464939
4 1 1 15.946927 5.786457 33.347392
5 1 1 15.889200 5.632640 33.004744
6 1 1 15.833228 5.415177 32.698187
7 1 1 15.848645 5.604871 32.369282
8 1 1 15.599636 5.547839 32.087961
9 1 1 15.402902 5.245127 31.969382
10 1 1 15.325043 4.911684 31.804598
11 1 1 15.489254 4.695823 31.538442
12 1 1 15.628102 4.346631 31.481993
13 1 1 15.451496 4.162903 31.200116
14 1 1 15.313212 4.120825 30.848680
15 1 1 15.309279 3.946293 30.511156
16 1 1 15.404123 3.608765 30.364597
17 1 1 15.751317 3.460960 30.319758
18 1 1 15.899124 3.112619 30.354563
19 1 1 15.688821 2.808991 30.265220
20 1 1 15.621904 2.434987 30.258636
21 1 1 15.310484 2.346599 30.059625
22 1 1 15.377679 2.144612 29.744846
23 1 1 15.674570 2.036874 29.533544
24 1 1 15.962200 2.271470 29.614990
25 1 1 15.906315 2.641438 29.548651
26 1 1 15.840780 2.708055 29.180321
27 1 1 15.992903 2.411039 28.998550
28 1 1 15.764437 2.155912 28.833888
29 1 1 15.682286 1.903813 28.561680
30 1 1 15.619788 1.538342 28.478464
31 1 1 15.413103 1.228792 28.401911
32 1 1 15.106725 1.093360 28.581329
33 1 1 15.141872 0.717313 28.623199
34 1 1 14.918046 0.506467 28.399935
35 1 1 14.588293 0.476591 28.586402
36 1 1 14.561746 0.145082 28.770242
37 1 1 14.603967 42.051627 29.015050
38 1 1 14.632035 41.678611 29.081918
39 1 1 14.676615 41.410664 29.347656
40 1 1 14.649168 41.058774 29.206874
41 1 1 14.751064 40.782181 29.446694
42 1 1 15.005286 40.550959 29.608890
43 1 1 15.092163 40.286146 29.350574
44 1 1 15.070775 40.089145 29.026332
45 1 1 15.074979 40.242522 28.678686
46 1 1 15.123533 40.089923 28.334076
47 1 1 15.137185 40.245154 27.987497
48 1 1 15.336426 40.101757 27.697428
49 1 1 15.341155 40.146480 27.320098
50 1 1 15.278543 39.852231 27.087940
51 1 1 15.152896 39.493646 27.082487
52 1 1 15.095893 39.159995 26.909781
53 1 1 15.389128 38.919250 26.888448
54 1 1 15.706270 38.775603 27.040720
55 1 1 15.749969 38.435609 26.876725
56 1 1 16.114577 38.331546 26.901857
57 1 1 16.249406 38.086426 26.644685
58 1 1 16.487271 38.163571 26.358557
59 1 1 16.380886 38.447031 26.128922
60 1 1 16.238664 38.407880 25.778722
61 1 1 16.171505 38.501582 25.416631
62 1 1 15.953609 38.785561 25.289049
63 1 1 15.792187 38.957575 24.991133
64 1 1 15.978512 38.930249 24.661078
65 1 1 15.929573 39.128540 24.340632
66 1 1 15.941009 39.482995 24.204136
67 1 1 15.992225 39.830694 24.348642
68 1 1 15.944939 40.122923 24.110385
69 1 1 15.879659 40.213208 23.747085
70 1 1 16.053092 40.148492 23.415223
71 1 1 15.980836 40.259650 23.059100
72 1 1 16.077379 40.223657 22.693336
73 1 1 16.218582 39.877365 22.625931
74 1 1 16.396714 39.822378 22.294804
75 1 1 16.594489 39.714581 21.988757
76 1 1 16.439951 39.620042 21.654720
77 1 1 16.135199 39.393058 21.656743
78 1 1 15.875611 39.277458 21.909035
79 1 1 15.734734 39.336384 22.257002
80 1 1 15.413351 39.531099 22.200444
81 1 1 15.089324 39.384125 22.333880
82 1 1 14.824744 39.277527 22.584946
83 1 1 14.613767 39.534267 22.769265
84 1 1 14.654679 39.624216 23.136192
85 1 1 14.472398 39.821825 23.404751
86 1 1 14.126989 39.978530 23.381600
87 1 1 14.159785 40.346487 23.470660
88 1 1 14.500724 40.509964 23.508555
89 1 1 14.811508 40.385343 23.688230
90 1 1 15.082016 40.150305 23.814650
91 1 1 15.004634 39.778902 23.792928
92 1 1 15.111552 39.513163 23.543225
93 1 1 15.303795 39.205399 23.656024
94 1 1 15.213067 38.912909 23.431039
95 1 1 15.286109 38.887028 23.059024
96 1 1 15.456378 39.109581 22.802356
97 1 1 15.404872 39.482226 22.856052
98 1 1 15.550385 39.695917 23.134551
99 1 1 15.458716 40.000654 23.342234
100 1 1 15.355265 40.346031 23.222180
101 1 1 15.047000 40.450961 23.026317
102 1 1 14.797536 40.175720 22.946257
103 1 1 14.850702 40.097591 22.578195
104 1 1 14.747533 40.022341 22.220294
105 1 1 14.880337 40.291346 21.987056
106 1 1 15.046201 40.592794 21.825755
107 1 1 14.870270 40.923434 21.761520
108 1 1 14.891966 41.280643 21.889312
109 1 1 15.129332 41.442120 22.138275
110 1 1 14.964835 41.766094 22.249547
111 1 1 14.838366 42.124299 22.259272
112 1 1 14.922212 0.266357 22.415381
113 1 1 14.901983 0.420914 22.761939
114 1 1 15.084364 0.555452 23.066959
115 1 1 14.996655 0.809556 23.335545
116 1 1 15.215154 1.120453 23.336621
117 1 1 15.029196 1.442929 23.412972
118 1 1 14.776504 1.644267 23.612996
119 1 1 14.528081 1.856146 23.418591
120 1 1 14.583805 2.208763 23.288376
121 1 1 14.655774 2.199245 22.915375
122 1 1 14.504172 2.087175 22.585440
123 1 1 14.549665 2.041757 22.210917
124 1 1 14.351168 2.173606 21.914919
125 1 1 14.401249 2.477435 21.692253
126 1 1 14.626611 2.747255 21.836506
127 1 1 14.770833 3.079384 21.951790
128 1 1 14.777053 3.422839 21.789310
129 1 1 15.020562 3.672303 21.638077
130 1 1 15.206807 3.773948 21.322829
131 1 1 15.326915 3.659924 20.980817
132 1 1 15.232124 3.440354 20.685514
133 1 1 14.984159 3.288343 20.440961
134 1 1 14.840035 3.197309 20.101342
135 1 1 14.904882 2.835463 20.005102
136 1 1 14.619186 2.743964 19.771852
137 1 1 14.303785 2.557002 19.871690
138 1 1 14.328307 2.182463 19.812366
139 1 1 14.547578 2.002902 20.065503
140 1 1 14.907853 1.886756 20.032162
141 1 1 15.233662 2.078469 19.993494
142 1 1 15.589588 2.146391 19.879025
143 1 1 15.621287 2.525047 19.875209
144 1 1 15.771812 2.662065 19.554322
145 1 1 15.789179 2.808526 19.204111
146 1 1 15.507510 3.042162 19.101754
147 1 1 15.557299 3.355646 19.310676
148 1 1 15.261746 3.586938 19.251068
149 1 1 15.111420 3.665264 18.910969
150 1 1 15.009930 3.606524 18.549515
151 1 1 15.048672 3.859598 18.268708
152 1 1 15.125320 4.091154 17.977320
153 1 1 15.132478 3.939017 17.629178
154 1 1 15.221292 3.950929 17.259894
155 1 1 15.520080 3.920138 17.027133
156 1 1 15.568940 3.550016 16.956268
157 1 1 15.861929 3.324657 17.044420
158 1 1 15.946043 3.296580 17.413929
159 1 1 16.041709 3.371180 17.774043
160 1 1 16.253563 3.219402 18.050596
161 1 1 16.204599 3.150555 18.421086
162 1 1 15.906269 3.134740 18.655925
163 1 1 15.616290 3.349846 18.537428
164 1 1 15.628285 3.690108 18.368674
165 1 1 15.880273 3.972858 18.337781
166 1 1 16.218150 4.140975 18.293328
167 1 1 16.590823 4.082119 18.248041
168 1 1 16.640163 4.022238 17.876047
169 1 1 16.861355 4.266138 17.686344
170 1 1 16.711268 4.591650 17.560187
171 1 1 16.858550 4.940852 17.587861
172 1 1 16.695884 5.284062 17.575737
173 1 1 16.634287 5.659036 17.576107
174 1 1 16.508102 5.921971 17.332504
175 1 1 16.402236 6.145664 17.044139
176 1 1 16.535289 6.493163 16.967055
177 1 1 16.529749 6.844282 17.112259
178 1 1 16.354694 7.111275 17.318344
179 1 1 16.419345 7.470246 17.424928
180 1 1 16.668679 7.677499 17.623116
181 1 1 16.916498 7.960612 17.569889
182 1 1 17.229571 8.030838 17.366287
183 1 1 17.464231 8.034218 17.067418
184 1 1 17.692476 7.923896 16.784340
185 1 1 17.870821 7.723457 16.515236
186 1 1 17.863376 7.512031 16.199571
187 1 1 17.971856 7.152944 16.260306
188 1 1 17.703494 6.891451 16.323576
189 1 1 17.722144 6.512829 16.349982
190 1 1 18.074243 6.376808 16.306113
191 1 1 18.125741 6.030982 16.454949
192 1 1 18.058669 5.880926 16.797564
193 1 1 17.850970 5.934366 17.111260
194 1 1 17.893167 6.106910 17.447188
195 1 1 17.701544 6.429117 17.509347
196 1 1 17.328020 6.495077 17.532349
197 1 1 17.069995 6.216558 17.516537
198 1 1 17.083871 6.022550 17.842985
199 1 1 17.345310 5.794919 17.998657
200 1 1 17.664296 5.628381 18.120775
201 1 1 17.652930 5.312573 18.331812
202 1 1 17.998611 5.219783 18.459461
203 1 1 18.302904 5.429973 18.546790
204 1 1 18.675687 5.366136 18.509943
205 1 1 18.861524 5.695791 18.544466
206 1 1 18.737616 6.010809 18.371807
207 1 1 18.709652 6.373459 18.481819
208 1 1 18.554954 6.550739 18.780215
209 1 1 18.430748 6.909545 18.764993
210 1 1 18.410874 7.033233 19.123750
211 1 1 18.266933 7.205158 19.430544
212 1 1 18.356581 7.573115 19.461701
213 1 1 18.366808 7.877537 19.688907
214 1 1 18.686427 7.901794 19.893003
215 1 1 19.038328 8.043880 19.912427
216 1 1 19.359301 8.218425 20.016881
217 1 1 19.699335 8.091877 19.903912
218 1 1 19.940231 8.371263 19.995086
219 1 1 20.170211 8.619065 19.821583
220 1 1 20.423869 8.867086 19.685407
221 1 1 20.732876 8.799892 19.474696
222 1 1 20.828070 8.742162 19.111371
223 1 1 20.813480 8.631339 18.748183
224 1 1 20.886774 8.889762 18.479398
225 1 1 20.899835 8.978058 18.110029
226 1 1 21.064391 9.108597 17.793358
227 1 1 21.154944 9.466239 17.702296
228 1 1 21.022039 9.817626 17.645169
229 1 1 21.007822 10.150354 17.828172
230 1 1 20.685117 10.350712 17.817330
231 1 1 20.611227 10.716177 17.744014
232 1 1 20.315770 10.878111 17.919749
233 1 1 20.127913 11.175129 17.775215
234 1 1 19.794199 11.228987 17.948807
235 1 1 19.590930 11.541775 18.021234
236 1 1 19.273685 11.448423 18.208426
237 1 1 19.136337 11.563326 18.543587
238 1 1 18.845005 11.413699 18.736299
239 1 1 18.849589 11.343622 19.109753
240 1 1 18.928866 10.990404 19.225306
241 1 1 19.182213 10.863248 18.972232
242 1 1 19.271081 10.506041 18.877862
243 1 1 19.514305 10.233484 18.982527
244 1 1 19.839232 10.384936 19.108560
245 1 1 20.139629 10.323361 19.332993
246 1 1 20.430253 10.191531 19.126695
247 1 1 20.444904 10.135663 18.751110
248 1 1 20.510422 10.400817 18.486912
249 1 1 20.812021 10.622455 18.552599
250 1 1 21.100968 10.665378 18.309562
251 1 1 21.414697 10.765078 18.119735
252 1 1 21.668396 10.882664 17.862422
253 1 1 21.995183 10.929024 18.050733
254 1 1 22.185092 10.603144 18.004507
255 1 1 22.448027 10.553818 18.274381
256 1 1 22.461817 10.844053 18.519275
257 1 1 22.668283 11.160302 18.477340
258 1 1 22.876677 11.408647 18.279106
259 1 1 22.674652 11.729719 18.256758
260 1 1 22.305281 11.751594 18.170233
261 1 1 21.980501 11.589503 18.282679
262 1 1 21.669253 11.541069 18.070125
263 1 1 21.358555 11.657478 18.255371
264 1 1 21.161820 11.845185 18.520817
265 1 1 20.952271 12.162064 18.529566
266 1 1 20.894330 12.256497 18.893057
267 1 1 20.730013 12.416068 19.196268
268 1 1 20.529986 12.652618 19.416344
269 1 1 20.178708 12.573970 19.538074
270 1 1 19.885745 12.534794 19.299247
271 1 1 19.803113 12.257081 19.053387
272 1 1 20.013210 12.012931 18.851768
273 1 1 20.254946 11.789071 19.041111
274 1 1 20.583598 11.650663 18.909843
275 1 1 20.686377 11.331057 19.087855
276 1 1 20.830463 10.983303 19.139877
277 1 1 20.938270 10.626661 19.214602
278 1 1 21.168774 10.543346 19.504992
279 1 1 21.441739 10.805808 19.536680
280 1 1 21.732913 11.002031 19.681986
281 1 1 21.621186 11.283745 19.911234
282 1 1 21.526916 11.590191 20.115205
283 1 1 21.168372 11.593751 20.241039
284 1 1 20.985653 11.916305 20.157536
285 1 1 20.724083 11.984503 19.890458
286 1 1 20.461526 11.902836 19.628172
287 1 1 20.127348 11.976618 19.793343
288 1 1 19.954870 12.126966 20.096735
289 1 1 19.651394 12.317147 19.969718
290 1 1 19.377619 12.500101 19.780046
291 1 1 19.398335 12.871856 19.856002
292 1 1 19.367550 13.088116 20.166942
293 1 1 19.005508 13.146778 20.266364
294 1 1 18.798699 13.431899 20.123760
295 1 1 18.909124 13.794700 20.099634
296 1 1 19.198625 13.896950 19.875727
297 1 1 19.430994 14.191763 19.934802
298 1 1 19.408394 14.560478 20.023899
299 1 1 19.656798 14.811642 20.163942
300 1 1 19.715454 15.095071 20.410169
301 1 1 19.519382 15.420084 20.428121
302 1 1 19.581382 15.610517 20.751062
303 1 1 19.547877 15.537899 21.122551
304 1 1 19.674490 15.460035 21.472275
305 1 1 19.787794 15.150086 21.660673
306 1 1 20.077162 14.921120 21.569896
307 1 1 20.424587 14.998621 21.436892
308 1 1 20.781959 14.908308 21.344540
309 1 1 21.123870 14.975442 21.192916
310 1 1 21.229404 15.332631 21.268276
311 1 1 21.514944 15.337024 21.518970
312 1 1 21.646156 15.012658 21.667193
313 1 1 21.951543 15.086262 21.881018
314 1 1 21.948271 15.187716 22.247210
315 1 1 21.707308 15.327563 22.505627
316 1 1 21.343149 15.326599 22.614196
317 1 1 21.082202 15.252325 22.348132
318 1 1 21.163656 15.033366 22.048429
319 1 1 21.140113 14.662940 21.967001
320 1 1 21.264172 14.346462 21.797146
321 1 1 21.643697 14.339628 21.779411
322 1 1 21.989725 14.436350 21.903143
323 1 1 22.284290 14.456857 21.663954
324 1 1 22.234113 14.187057 21.401104
325 1 1 22.327294 13.830609 21.494175
326 1 1 22.058454 13.565372 21.536294
327 1 1 21.839496 13.339306 21.323334
328 1 1 21.748437 13.486127 20.984879
329 1 1 21.917334 13.808992 20.877029
330 1 1 21.971710 14.183147 20.838933
331 1 1 21.785740 14.514073 20.856365
332 1 1 21.621827 14.856866 20.851367
333 1 1 21.438555 14.938640 20.528684
334 1 1 21.103164 14.936652 20.350055
335 1 1 20.883179 14.651351 20.229182
336 1 1 20.748590 14.446200 19.939012
337 1 1 20.801953 14.642280 19.617912
338 1 1 20.915700 14.799786 19.291334
339 1 1 21.017546 14.726325 18.932682
340 1 1 20.895102 14.552492 18.617738
341 1 1 20.692224 14.535477 18.296878
342 1 1 20.395987 14.304949 18.237712
343 1 1 20.501112 13.942839 18.284880
344 1 1 20.235071 13.707272 18.419529
345 1 1 20.179231 13.348170 18.308499
346 1 1 20.200236 13.105156 18.599881
347 1 1 20.184953 12.726197 18.576292
348 1 1 20.110453 12.633358 18.215417
349 1 1 20.209495 12.738195 17.863849
350 1 1 20.495351 12.962203 17.752015
351 1 1 20.807418 12.878418 17.552029
352 1 1 21.134506 12.927057 17.739239
353 1 1 21.405787 12.670068 17.808256
354 1 1 21.675540 12.571809 18.057211
355 1 1 21.998319 12.619452 18.252001
356 1 1 22.095960 12.820184 18.559529
357 1 1 22.274042 12.606428 18.818364
358 1 1 22.423117 12.397028 19.098235
359 1 1 22.416354 12.512571 19.460180
360 1 1 22.187806 12.654635 19.728478
361 1 1 22.407257 12.801731 20.001616
362 1 1 22.631281 12.618799 20.248089
363 1 1 23.005372 12.666418 20.201313
364 1 1 23.280943 12.898009 20.323078
365 1 1 23.374745 13.241650 20.455410
366 1 1 23.676871 13.387128 20.276648
367 1 1 23.953410 13.643634 20.322811
368 1 1 24.078335 13.934578 20.532918
369 1 1 23.946348 14.158018 20.810504
370 1 1 23.694212 14.424099 20.710359
371 1 1 23.739023 14.633802 20.396645
372 1 1 23.855235 14.995165 20.378987
373 1 1 23.792602 15.369897 20.371727
374 1 1 23.656452 15.592292 20.648140
375 1 1 23.864352 15.514054 20.956452
376 1 1 24.095094 15.212814 20.936127
377 1 1 24.002258 14.900795 21.132152
378 1 1 24.146598 14.854933 21.480667
379 1 1 23.895977 14.933951 21.755157
380 1 1 23.835463 15.307667 21.787939
381 1 1 23.769966 15.672980 21.869527
382 1 1 23.933699 15.963319 21.687060
383 1 1 24.127199 16.034349 21.367822
384 1 1 24.432512 15.808818 21.349941
385 1 1 24.582611 15.705706 21.016418
386 1 1 24.905613 15.790751 20.835208
387 1 1 25.277190 15.728096 20.786165
388 1 1 25.508995 15.754227 20.486193
389 1 1 25.536874 15.993306 20.192146
390 1 1 25.446350 16.361128 20.161929
391 1 1 25.462088 16.694770 20.343134
392 1 1 25.749276 16.749877 20.585799
393 1 1 25.764523 16.724673 20.964655
394 1 1 25.420056 16.741064 21.124260
395 1 1 25.404834 16.955758 21.437429
396 1 1 25.086569 16.873210 21.627937
397 1 1 24.750038 17.014810 21.733277
398 1 1 24.744091 17.379294 21.840588
399 1 1 24.828432 17.597696 21.541277
400 1 1 25.067115 17.828065 21.355911
401 1 1 25.315828 17.872969 21.072141
402 1 1 25.579239 18.122490 20.959209
403 1 1 25.659802 18.435701 21.158729
404 1 1 25.919466 18.706801 21.217718
405 1 1 26.107112 18.744534 20.889442
406 1 1 25.883621 18.875841 20.611575
407 1 1 25.615370 19.085811 20.443187
408 1 1 25.329794 19.336478 20.446644
409 1 1 25.229350 19.660372 20.275168
410 1 1 25.048892 19.994280 20.293608
411 1 1 25.080358 20.365550 20.218985
412 1 1 24.868647 20.423064 19.908710
413 1 1 24.665121 20.235617 19.648247
414 1 1 24.468270 20.472737 19.425933
415 1 1 24.547657 20.462342 19.054463
416 1 1 24.778114 20.340830 18.777833
417 1 1 25.051969 20.148596 18.597696
418 1 1 25.362026 19.948456 18.507094
419 1 1 25.570275 19.716439 18.724350
420 1 1 25.775533 19.570342 19.008822
421 1 1 25.661914 19.677571 19.355222
422 1 1 25.420363 19.922099 19.517270
423 1 1 25.365161 20.196955 19.260741
424 1 1 25.497485 20.536019 19.369947
425 1 1 25.634090 20.536286 19.724544
426 1 1 25.653077 20.856470 19.928312
427 1 1 25.532516 21.216185 19.906617
428 1 1 25.753295 21.522023 19.860580
429 1 1 25.655074 21.879216 19.775931
430 1 1 25.576491 22.250464 19.795914
431 1 1 25.850903 22.511577 19.765613
432 1 1 26.193833 22.524315 19.602405
433 1 1 26.179411 22.292030 19.302013
434 1 1 26.397088 22.266189 18.991611
435 1 1 26.457178 22.499611 18.697837
436 1 1 26.710556 22.583119 18.427234
437 1 1 26.703379 22.874875 18.183868
438 1 1 26.886536 23.207221 18.163886
439 1 1 26.737762 23.444746 17.907277
440 1 1 26.559945 23.741756 17.750543
441 1 1 26.575828 24.108988 17.846922
442 1 1 26.644231 24.417117 18.058529
443 1 1 26.683719 24.659856 18.348215
444 1 1 26.545084 25.013506 18.358829
445 1 1 26.518324 25.390957 18.393674
446 1 1 26.725069 25.563289 18.661925
447 1 1 26.802301 25.913536 18.787473
448 1 1 26.680205 26.001539 19.136397
449 1 1 26.360306 25.887045 19.306561
450 1 1 26.314359 25.611900 19.564600
451 1 1 23.653467 15.247566 41.546273
452 1 1 23.843272 15.565616 41.461313
453 1 1 23.637994 15.879893 41.520398
454 1 1 23.273135 15.854675 41.417239
455 1 1 22.905833 15.937023 41.365203
456 1 1 22.706144 16.028124 41.055001
457 1 1 22.370650 15.898260 40.932612
458 1 1 22.350444 15.521990 40.981734
459 1 1 22.568133 15.213584 41.025290
460 1 1 22.572083 14.921770 41.268660
461 1 1 22.804901 14.883674 41.566560
462 1 1 23.165544 14.778392 41.509529
463 1 1 23.367060 14.557484 41.275028
464 1 1 23.573875 14.242008 41.229177
465 1 1 23.720269 14.120858 40.900100
466 1 1 23.946372 13.932860 40.659405
467 1 1 23.984844 13.664364 40.393267
468 1 1 23.941756 13.535556 40.038369
469 1 1 23.758287 13.203345 40.019014
470 1 1 23.388214 13.191618 39.933522
471 1 1 23.097086 13.390649 39.791991
472 1 1 23.041293 13.760909 39.856758
473 1 1 23.178810 14.082597 39.708416
474 1 1 23.557588 14.084618 39.678030
475 1 1 23.690810 13.777733 39.497826
476 1 1 23.939255 13.730174 39.214254
477 1 1 23.987379 13.620350 38.853667
478 1 1 23.709257 13.504208 38.622239
479 1 1 23.338966 13.519850 38.538337
480 1 1 23.033849 13.534048 38.312279
481 1 1 22.951518 13.312626 38.014632
482 1 1 23.223432 13.339302 37.750527
483 1 1 23.584863 13.253717 37.670256
484 1 1 23.677135 12.962013 37.444879
485 1 1 23.669820 12.621721 37.613841
486 1 1 23.406264 12.352429 37.663034
487 1 1 23.064737 12.277594 37.514176
488 1 1 22.882573 12.043380 37.276773
489 1 1 22.514685 12.117078 37.216552
490 1 1 22.274659 11.823150 37.196689
491 1 1 21.946435 11.636679 37.240246
492 1 1 21.990581 11.292373 37.394857
493 1 1 21.792309 11.049370 37.609421
494 1 1 21.518656 11.114257 37.864966
495 1 1 21.154619 11.035843 37.789282
496 1 1 20.975399 10.880682 38.086276
497 1 1 20.695159 10.944532 38.334848
498 1 1 20.444699 11.163525 38.151241
499 1 1 20.110815 11.010406 38.053894
500 1 1 19.862032 11.135638 37.795392
501 1 1 19.866740 11.224323 37.425915
502 1 1 19.864683 11.091439 37.069913
503 1 1 19.939993 10.726573 36.995070
504 1 1 20.115461 10.523085 36.726362
505 1 1 20.133485 10.329534 36.399846
506 1 1 20.106603 10.500971 36.061783
507 1 1 19.854862 10.723417 35.884175
508 1 1 19.514622 10.577667 35.798189
509 1 1 19.245199 10.818308 35.916103
510 1 1 18.976388 10.953854 35.684224
511 1 1 18.921924 10.835058 35.327403
512 1 1 19.135072 10.979116 35.047734
513 1 1 19.355458 11.103962 34.764460
514 1 1 19.199022 11.093673 34.418307
515 1 1 18.930434 10.937245 34.199696
516 1 1 18.747425 10.810106 33.891892
517 1 1 18.618092 10.467014 33.792085
518 1 1 18.301764 10.264598 33.734084
519 1 1 18.139859 9.988379 33.938754
520 1 1 17.765466 9.944481 33.890763
521 1 1 17.506610 9.923046 34.168133
522 1 1 17.637041 9.712220 34.456126
523 1 1 17.885330 9.450788 34.336101
524 1 1 17.766186 9.097753 34.410740
525 1 1 17.606353 8.847076 34.174067
526 1 1 17.276665 8.795155 33.992380
527 1 1 17.235699 8.706644 33.625109
528 1 1 17.416772 8.711079 33.291054
529 1 1 17.486356 8.345042 33.216388
530 1 1 17.225957 8.070758 33.179497
531 1 1 16.938755 7.916859 32.983972
532 1 1 17.073861 7.777001 32.657496
533 1 1 16.987553 7.559476 32.358108
534 1 1 17.054914 7.446427 32.001621
535 1 1 17.390301 7.600168 31.910632
536 1 1 17.763759 7.617144 31.842506
537 1 1 17.828230 7.897961 31.594745
538 1 1 17.744412 7.756109 31.252324
539 1 1 17.637461 7.550431 30.951229
540 1 1 17.406672 7.765639 30.739516
541 1 1 17.393465 8.024805 30.461922
542 1 1 17.559232 8.274379 30.228183
543 1 1 17.436998 8.492020 29.941667
544 1 1 17.451546 8.523036 29.563214
545 1 1 17.512437 8.408654 29.205990
546 1 1 17.773121 8.326357 28.942038
547 1 1 17.670510 8.371902 28.579000
548 1 1 17.665076 8.367461 28.199065
549 1 1 17.969057 8.510340 28.021356
550 1 1 17.962220 8.501594 27.641518
551 1 1 17.784462 8.362032 27.336027
552 1 1 17.471943 8.294653 27.130621
553 1 1 17.141591 8.402866 26.977135
554 1 1 17.223369 8.464889 26.611259
555 1 1 17.057097 8.796729 26.529797
556 1 1 16.825213 8.993491 26.301950
557 1 1 16.503904 9.086210 26.121497
558 1 1 16.226859 8.978682 25.884676
559 1 1 15.964053 8.704946 25.864643
560 1 1 15.679107 8.462810 25.932290
561 1 1 15.678511 8.084162 25.964317
562 1 1 15.596782 7.953626 25.616926
563 1 1 15.652824 7.585396 25.541656
564 1 1 15.388777 7.335416 25.652059
565 1 1 15.171119 7.114579 25.432386
566 1 1 14.845334 7.094034 25.237857
567 1 1 14.540075 6.932185 25.396041
568 1 1 14.163060 6.956123 25.354977
569 1 1 14.076282 6.697132 25.090793
570 1 1 14.248828 6.360413 25.126130
571 1 1 14.298573 6.049824 24.912917
572 1 1 14.501434 6.051026 24.591598
573 1 1 14.307415 6.210245 24.306281
574 1 1 14.042589 6.130259 24.045764
575 1 1 13.747735 5.911745 24.144316
576 1 1 13.398677 5.984387 24.012854
577 1 1 13.053606 6.042200 24.161123
578 1 1 12.859090 6.155929 24.467112
579 1 1 12.637071 6.462289 24.502485
580 1 1 12.808306 6.762349 24.344237
581 1 1 12.947758 7.017344 24.099430
582 1 1 13.182932 7.274923 23.948611
583 1 1 13.388035 7.528455 23.753536
584 1 1 13.636306 7.799196 23.656271
585 1 1 13.798050 7.809015 23.312553
586 1 1 13.882590 7.741721 22.948239
587 1 1 13.844507 7.597770 22.598628
588 1 1 14.008645 7.526717 22.263352
589 1 1 13.860041 7.629551 21.929073
590 1 1 13.609158 7.431615 21.723455
591 1 1 13.317752 7.200927 21.644300
592 1 1 13.058099 7.235113 21.919639
593 1 1 12.792469 6.964052 21.900498
594 1 1 12.728209 6.790385 22.232327
595 1 1 12.414515 6.770938 22.445911
596 1 1 12.371682 6.955013 22.775579
597 1 1 12.053743 7.149726 22.849076
598 1 1 11.680962 7.132785 22.920818
599 1 1 11.416380 6.896005 22.785422
600 1 1 11.427496 6.582112 22.999308
601 1 1 11.342124 6.513148 23.363115
602 1 1 11.275141 6.430921 23.728015
603 1 1 11.211727 6.630846 24.044888
604 1 1 11.232067 6.745934 24.406469
605 1 1 11.346549 6.863091 24.749351
606 1 1 11.212560 7.166158 24.935354
607 1 1 11.361950 7.489072 25.068805
608 1 1 11.233527 7.846713 25.069786
609 1 1 11.004375 8.086798 25.254850
610 1 1 10.739616 8.028144 25.521049
611 1 1 10.396168 8.109207 25.380080
612 1 1 10.149836 7.875101 25.210037
613 1 1 9.825384 7.685218 25.154576
614 1 1 9.571147 7.403607 25.175985
615 1 1 9.210558 7.466760 25.277903
616 1 1 8.878264 7.593313 25.411935
617 1 1 8.903176 7.934331 25.577726
618 1 1 9.184821 8.161071 25.694621
619 1 1 9.443210 8.370283 25.510595
620 1 1 9.506896 8.205600 25.174108
621 1 1 9.487679 8.124100 24.803448
622 1 1 9.282523 8.331319 24.559786
623 1 1 9.425436 8.521350 24.263368
624 1 1 9.515764 8.754989 23.977617
625 1 1 9.784878 8.714103 23.712464
626 1 1 10.071914 8.508730 23.853290
627 1 1 10.037116 8.452819 24.227540
628 1 1 10.114352 8.456349 24.599591
629 1 1 10.342286 8.490632 24.901702
630 1 1 10.533332 8.815995 24.856530
631 1 1 10.412743 9.171785 24.799332
632 1 1 10.306973 9.505188 24.650821
633 1 1 10.357100 9.568270 24.279462
634 1 1 10.537176 9.874274 24.144057
635 1 1 10.898649 9.933994 24.043206
636 1 1 11.051849 10.182755 23.800209
637 1 1 10.929963 10.451219 23.560479
638 1 1 10.906245 10.487511 23.182960
639 1 1 11.186229 10.645465 22.980328
640 1 1 11.212732 10.559830 22.611053
641 1 1 11.194221 10.860488 22.379401
642 1 1 11.157850 11.159361 22.611246
643 1 1 10.885721 11.374927 22.765768
644 1 1 11.053913 11.700298 22.866984
645 1 1 11.243333 11.868559 23.150196
646 1 1 11.476359 11.951760 23.438598
647 1 1 11.793431 12.151872 23.500408
648 1 1 11.839970 12.498939 23.647985
649 1 1 11.757205 12.835264 23.491667
650 1 1 11.995262 13.044746 23.282273
651 1 1 11.961083 13.107975 22.909132
652 1 1 12.243322 13.104348 22.654715
653 1 1 12.568708 13.299539 22.634112
654 1 1 12.875959 13.173508 22.449415
655 1 1 13.076090 13.361698 22.186866
656 1 1 12.984002 13.362766 21.818194
657 1 1 13.018918 13.590930 21.516330
658 1 1 13.120162 13.955230 21.478451
659 1 1 13.230072 14.136830 21.793636
660 1 1 13.577145 14.020615 21.895786
661 1 1 13.807493 14.276080 22.057271
662 1 1 14.066778 14.202414 22.325124
663 1 1 13.964586 14.276795 22.683487
664 1 1 14.243213 14.458416 22.867283
665 1 1 14.412801 14.746864 22.687180
666 1 1 14.659036 14.828340 22.409457
667 1 1 14.802960 15.036146 22.125727
668 1 1 14.987252 15.355392 22.033432
669 1 1 14.819571 15.533061 21.742370
670 1 1 14.896864 15.571405 21.372295
671 1 1 15.011324 15.927500 21.305251
672 1 1 15.363490 16.056753 21.244645
673 1 1 15.462127 16.406363 21.356194
674 1 1 15.306797 16.558810 21.667695
675 1 1 15.167511 16.420455 21.993052
676 1 1 15.283448 16.500371 22.346000
677 1 1 15.287591 16.860533 22.467103
678 1 1 15.262602 17.105863 22.177986
679 1 1 15.472451 17.321526 21.945924
680 1 1 15.749905 17.399454 21.698241
681 1 1 15.965568 17.413731 21.385695
682 1 1 16.219141 17.194662 21.206502
683 1 1 16.062439 17.041619 20.895982
684 1 1 15.884714 16.729839 20.771056
685 1 1 15.735458 16.660734 20.428496
686 1 1 15.651823 16.847257 20.108161
687 1 1 15.599891 17.217886 20.174018
688 1 1 15.335531 17.250446 20.445041
689 1 1 15.219632 16.960283 20.661312
690 1 1 15.045089 16.788709 20.951995
691 1 1 14.758976 16.969958 21.124297
692 1 1 14.501881 17.050800 20.856403
693 1 1 14.477080 17.281979 20.555835
694 1 1 14.430546 17.655984 20.507305
695 1 1 14.399293 18.018074 20.618274
696 1 1 14.755640 18.149205 20.633137
697 1 1 15.044622 17.957450 20.477832
698 1 1 15.382965 17.872371 20.628448
699 1 1 15.750924 17.845236 20.719386
700 1 1 16.071833 17.674810 20.608155
701 1 1 16.374834 17.643205 20.835293
702 1 1 16.676224 17.564224 20.617748
703 1 1 16.698447 17.769646 20.298831
704 1 1 16.947626 17.955601 20.080358
705 1 1 17.294999 17.897290 19.937767
706 1 1 17.307902 17.619443 19.678857
707 1 1 17.312798 17.554721 19.304441
708 1 1 17.304881 17.635057 18.933115
709 1 1 17.317092 17.858401 18.625920
710 1 1 17.246853 17.715239 18.280998
711 1 1 17.059207 17.831138 17.971553
712 1 1 16.892203 18.172057 17.954695
713 1 1 17.007825 18.488643 17.779183
714 1 1 16.854133 18.477916 17.431816
715 1 1 17.096491 18.619150 17.175465
716 1 1 17.401415 18.845878 17.171552
717 1 1 17.742947 19.012340 17.178342
718 1 1 18.045863 19.117569 16.974457
719 1 1 18.331882 19.043449 16.735502
720 1 1 18.704958 19.055407 16.664289
721 1 1 19.038633 18.932856 16.529968
722 1 1 19.396785 19.041785 16.595249
723 1 1 19.553556 19.262748 16.328794
724 1 1 19.877367 19.125006 16.185358
725 1 1 20.202382 19.281430 16.304927
726 1 1 20.428782 19.436302 16.567905
727 1 1 20.492685 19.196194 16.855420
728 1 1 20.524203 19.145843 17.230749
729 1 1 20.350678 19.411876 17.439352
730 1 1 20.156281 19.689849 17.268061
731 1 1 20.384665 19.976769 17.168473
732 1 1 20.473648 20.093908 16.818101
733 1 1 20.218347 20.343070 16.687183
734 1 1 20.006677 20.654783 16.637876
735 1 1 19.967459 21.008058 16.772257
736 1 1 20.088056 21.362523 16.707364
737 1 1 20.228153 21.602902 16.966190
738 1 1 20.251517 21.637805 17.343861
739 1 1 20.503310 21.862479 17.518565
740 1 1 20.738918 21.727757 17.784533
741 1 1 20.966782 21.780742 18.083984
742 1 1 21.315536 21.875309 18.201574
743 1 1 21.564254 21.897709 17.915152
744 1 1 21.739240 21.623051 17.719338
745 1 1 21.846456 21.258493 17.717894
746 1 1 21.988528 21.121800 17.393039
747 1 1 22.090208 20.762051 17.324908
748 1 1 22.440296 20.687585 17.197265
749 1 1 22.749287 20.781245 16.996884
750 1 1 22.732107 21.149169 16.903411
751 1 1 22.488813 21.392640 16.742385
752 1 1 22.206242 21.574301 16.564753
753 1 1 22.305542 21.927669 16.466413
754 1 1 22.078790 22.158299 16.665897
755 1 1 21.901921 22.026031 16.975126
756 1 1 22.152523 21.823460 17.176530
757 1 1 22.389183 21.564150 17.321962
758 1 1 22.743483 21.698896 17.348700
759 1 1 22.890252 21.971571 17.568944
760 1 1 22.652839 22.130155 17.819714
761 1 1 22.720933 22.055796 18.186094
762 1 1 22.436264 22.025262 18.435957
763 1 1 22.105903 21.842127 18.394447
764 1 1 21.929945 21.553739 18.568433
765 1 1 22.061178 21.488083 18.918958
766 1 1 22.159519 21.631091 19.257008
767 1 1 22.016743 21.404660 19.526720
768 1 1 21.720018 21.343418 19.756075
769 1 1 21.761779 21.210573 20.109640
770 1 1 21.754238 21.283558 20.482489
771 1 1 21.682479 21.025300 20.751846
772 1 1 21.689357 21.160225 21.107019
773 1 1 21.888779 21.439333 21.270512
774 1 1 22.204749 21.617803 21.383257
775 1 1 22.485628 21.745747 21.161588
776 1 1 22.585299 21.844889 20.808548
777 1 1 22.921897 22.016823 20.769301
778 1 1 23.300596 22.025273 20.739040
779 1 1 23.538411 22.265878 20.912111
780 1 1 23.595099 22.515104 21.193310
781 1 1 23.436119 22.559800 21.535550
782 1 1 23.176972 22.287266 21.590031
783 1 1 22.853897 22.410906 21.432756
784 1 1 22.536982 22.554820 21.280265
785 1 1 22.282923 22.592062 21.560384
786 1 1 22.400983 22.362128 21.838937
787 1 1 22.274376 22.340403 22.196567
788 1 1 22.082638 22.609136 22.384767
789 1 1 21.945571 22.859852 22.635274
790 1 1 21.810624 22.838565 22.989867
791 1 1 21.463077 22.762930 23.123622
792 1 1 21.197302 23.034232 23.136215
793 1 1 20.976600 23.267855 22.933457
794 1 1 21.139133 23.532856 22.714922