LAMMPS chain data file

25450 atoms
25350 bonds
0 angles
0 dihedrals
0 impropers

4 atom types
2 bond types
0 angle types
0 dihedral types
0 improper types

-50.00000 50.00000 xlo xhi
-12.50000 12.50000 ylo yhi
-12.50000 12.50000 zlo zhi

Masses

1  5.65487
2  5.65487
3  5.65487
4 28.27433

Atoms

1 1 1 -1.3816 -4.9707 0.13764
2 1 1 -1.3816 -4.9707 0.51764
3 1 1 -1.7616 -4.9707 0.51764
4 1 1 -1.3816 -4.9707 0.51764
5 1 1 -1.0016 -4.9707 0.51764
6 1 1 -1.3816 -4.9707 0.51764
7 1 1 -1.3816 -4.5907 0.51764
8 1 1 -1.3816 -4.2107 0.51764
9 1 1 -1.3816 -4.5907 0.51764
10 1 1 -1.0016 -4.5907 0.51764
11 1 1 -1.0016 -4.2107 0.51764
12 1 1 -1.3816 -4.2107 0.51764
13 1 1 -1.3816 -4.2107 0.89764
14 1 1 -1.3816 -3.8307 0.89764
15 1 1 -1.7616 -3.8307 0.89764
16 1 1 -1.7616 -4.2107 0.89764
17 1 1 -1.7616 -4.2107 0.51764
18 1 1 -1.7616 -4.2107 0.89764
19 1 1 -2.1416 -4.2107 0.89764
20 1 1 -1.7616 -4.2107 0.89764
21 1 1 -1.3816 -4.2107 0.89764
22 1 1 -1.3816 -4.2107 1.2776
23 1 1 -1.3816 -4.2107 1.6576
24 1 1 -1.7616 -4.2107 1.6576
25 1 1 -1.3816 -4.2107 1.6576
26 1 1 -1.3816 -3.8307 1.6576
27 1 1 -1.3816 -3.4507 1.6576
28 1 1 -1.3816 -3.0707 1.6576
29 1 1 -1.7616 -3.0707 1.6576
30 1 1 -1.7616 -2.6907 1.6576
31 1 1 -1.7616 -2.6907 2.0376
32 1 1 -1.3816 -2.6907 2.0376
33 1 1 -1.3816 -3.0707 2.0376
34 1 1 -1.3816 -2.6907 2.0376
35 1 1 -1.3816 -2.3107 2.0376
36 1 1 -1.0016 -2.3107 2.0376
37 1 1 -1.0016 -2.3107 1.6576
38 1 1 -1.3816 -2.3107 1.6576
39 1 1 -1.3816 -2.6907 1.6576
40 1 1 -1.3816 -2.6907 2.0376
41 1 1 -1.3816 -2.3107 2.0376
42 1 1 -1.3816 -2.3107 1.6576
43 1 1 -1.3816 -1.9307 1.6576
44 1 1 -1.7616 -1.9307 1.6576
45 1 1 -1.3816 -1.9307 1.6576
46 1 1 -1.7616 -1.9307 1.6576
47 1 1 -1.7616 -2.3107 1.6576
48 1 1 -1.3816 -2.3107 1.6576
49 1 1 -1.3816 -2.3107 1.2776
50 1 1 -1.0016 -2.3107 1.2776
51 1 1 -1.0016 -2.3107 1.6576
52 1 1 -0.62159 -2.3107 1.6576
53 1 1 -0.62159 -2.3107 1.2776
54 1 1 -1.0016 -2.3107 1.2776
55 1 1 -1.3816 -2.3107 1.2776
56 1 1 -1.3816 -2.3107 0.89764
57 1 1 -1.3816 -2.3107 1.2776
58 1 1 -1.3816 -2.3107 1.6576
59 1 1 -1.3816 -1.9307 1.6576
60 1 1 -1.3816 -1.5507 1.6576
61 1 1 -1.3816 -1.5507 1.2776
62 1 1 -1.3816 -1.5507 0.89764
63 1 1 -1.0016 -1.5507 0.89764
64 1 1 -1.0016 -1.5507 0.51764
65 1 1 -1.0016 -1.1707 0.51764
66 1 1 -1.0016 -1.1707 0.13764
67 1 1 -1.0016 -1.1707 -0.24236
68 1 1 -1.3816 -1.1707 -0.24236
69 1 1 -1.7616 -1.1707 -0.24236
70 1 1 -1.7616 -0.79067 -0.24236
71 1 1 -1.3816 -0.79067 -0.24236
72 1 1 -1.3816 -0.79067 -0.62236
73 1 1 -1.3816 -1.1707 -0.62236
74 1 1 -1.3816 -0.79067 -0.62236
75 1 1 -1.3816 -0.79067 -0.24236
76 1 1 -1.3816 -0.79067 0.13764
77 1 1 -1.3816 -0.79067 0.51764
78 1 1 -1.3816 -0.79067 0.13764
79 1 1 -1.3816 -0.41067 0.13764
80 1 1 -1.3816 -0.79067 0.13764
81 1 1 -1.0016 -0.79067 0.13764
82 1 1 -1.0016 -0.41067 0.13764
83 1 1 -1.0016 -0.41067 0.51764
84 1 1 -1.0016 -0.79067 0.51764
85 1 1 -1.0016 -1.1707 0.51764
86 1 1 -1.0016 -0.79067 0.51764
87 1 1 -1.0016 -1.1707 0.51764
88 1 1 -1.3816 -1.1707 0.51764
89 1 1 -1.7616 -1.1707 0.51764
90 1 1 -1.7616 -0.79067 0.51764
91 1 1 -2.1416 -0.79067 0.51764
92 1 1 -2.1416 -0.41067 0.51764
93 1 1 -2.1416 -0.030669 0.51764
94 1 1 -1.7616 -0.030669 0.51764
95 1 1 -1.7616 -0.41067 0.51764
96 1 1 -2.1416 -0.41067 0.51764
97 1 1 -2.1416 -0.41067 0.89764
98 1 1 -2.1416 -0.41067 0.51764
99 1 1 -2.1416 -0.41067 0.13764
100 1 1 -1.7616 -0.41067 0.13764
101 1 1 -2.1416 -0.41067 0.13764
102 1 1 -1.7616 -0.41067 0.13764
103 1 1 -2.1416 -0.41067 0.13764
104 1 1 -2.1416 -0.030669 0.13764
105 1 1 -2.1416 -0.030669 -0.24236
106 1 1 -2.1416 0.34933 -0.24236
107 1 1 -2.1416 0.72933 -0.24236
108 1 1 -2.1416 0.72933 -0.62236
109 1 1 -2.1416 0.34933 -0.62236
110 1 1 -2.1416 -0.030669 -0.62236
111 1 1 -2.1416 -0.030669 -1.0024
112 1 1 -2.1416 -0.030669 -0.62236
113 1 1 -2.1416 -0.030669 -1.0024
114 1 1 -2.5216 -0.030669 -1.0024
115 1 1 -2.5216 -0.030669 -0.62236
116 1 1 -2.1416 -0.030669 -0.62236
117 1 1 -2.1416 -0.41067 -0.62236
118 1 1 -2.1416 -0.79067 -0.62236
119 1 1 -2.1416 -0.41067 -0.62236
120 1 1 -2.1416 -0.41067 -1.0024
121 1 1 -1.7616 -0.41067 -1.0024
122 1 1 -1.7616 -0.41067 -0.62236
123 1 1 -1.7616 -0.41067 -0.24236
124 1 1 -1.7616 -0.41067 -0.62236
125 1 1 -1.7616 -0.41067 -0.24236
126 1 1 -1.3816 -0.41067 -0.24236
127 1 1 -1.3816 -0.030669 -0.24236
128 1 1 -1.3816 -0.41067 -0.24236
129 1 1 -1.7616 -0.41067 -0.24236
130 1 1 -1.3816 -0.41067 -0.24236
131 1 1 -1.7616 -0.41067 -0.24236
132 1 1 -1.3816 -0.41067 -0.24236
133 1 1 -1.3816 -0.79067 -0.24236
134 1 1 -1.7616 -0.79067 -0.24236
135 1 1 -1.7616 -0.41067 -0.24236
136 1 1 -1.7616 -0.79067 -0.24236
137 1 1 -2.1416 -0.79067 -0.24236
138 1 1 -2.1416 -1.1707 -0.24236
139 1 1 -1.7616 -1.1707 -0.24236
140 1 1 -1.7616 -1.5507 -0.24236
141 1 1 -1.7616 -1.5507 0.13764
142 1 1 -1.7616 -1.5507 0.51764
143 1 1 -1.7616 -1.5507 0.13764
144 1 1 -1.7616 -1.9307 0.13764
145 1 1 -1.7616 -2.3107 0.13764
146 1 1 -1.3816 -2.3107 0.13764
147 1 1 -1.3816 -1.9307 0.13764
148 1 1 -1.7616 -1.9307 0.13764
149 1 1 -1.7616 -1.5507 0.13764
150 1 1 -1.7616 -1.9307 0.13764
151 1 1 -1.3816 -1.9307 0.13764
152 1 1 -1.7616 -1.9307 0.13764
153 1 1 -1.3816 -1.9307 0.13764
154 1 1 -1.3816 -1.9307 -0.24236
155 1 1 -1.3816 -1.9307 -0.62236
156 1 1 -1.3816 -1.9307 -1.0024
157 1 1 -1.3816 -1.5507 -1.0024
158 1 1 -1.0016 -1.5507 -1.0024
159 1 1 -1.0016 -1.1707 -1.0024
160 1 1 -1.0016 -1.5507 -1.0024
161 1 1 -1.3816 -1.5507 -1.0024
162 1 1 -1.3816 -1.5507 -0.62236
163 1 1 -1.3816 -1.9307 -0.62236
164 1 1 -1.3816 -1.5507 -0.62236
165 1 1 -1.3816 -1.5507 -0.24236
166 1 1 -1.3816 -1.5507 0.13764
167 1 1 -1.3816 -1.5507 -0.24236
168 1 1 -1.7616 -1.5507 -0.24236
169 1 1 -1.7616 -1.1707 -0.24236
170 1 1 -1.7616 -0.79067 -0.24236
171 1 1 -1.7616 -1.1707 -0.24236
172 1 1 -2.1416 -1.1707 -0.24236
173 1 1 -2.5216 -1.1707 -0.24236
174 1 1 -2.5216 -0.79067 -0.24236
175 1 1 -2.1416 -0.79067 -0.24236
176 1 1 -2.1416 -0.41067 -0.24236
177 1 1 -1.7616 -0.41067 -0.24236
178 1 1 -1.7616 -0.41067 0.13764
179 1 1 -1.7616 -0.41067 -0.24236
180 1 1 -1.7616 -0.41067 -0.62236
181 1 1 -1.3816 -0.41067 -0.62236
182 1 1 -1.3816 -0.030669 -0.62236
183 1 1 -1.3816 -0.030669 -1.0024
184 1 1 -1.0016 -0.030669 -1.0024
185 1 1 -0.62159 -0.030669 -1.0024
186 1 1 -0.62159 -0.030669 -0.62236
187 1 1 -0.62159 -0.030669 -1.0024
188 1 1 -0.62159 -0.030669 -0.62236
189 1 1 -0.24159 -0.030669 -0.62236
190 1 1 -0.62159 -0.030669 -0.62236
191 1 1 -0.62159 -0.41067 -0.62236
192 1 1 -1.0016 -0.41067 -0.62236
193 1 1 -0.62159 -0.41067 -0.62236
194 1 1 -0.62159 -0.030669 -0.62236
195 1 1 -0.62159 -0.030669 -0.24236
196 1 1 -1.0016 -0.030669 -0.24236
197 1 1 -1.3816 -0.030669 -0.24236
198 1 1 -1.3816 0.34933 -0.24236
199 1 1 -1.7616 0.34933 -0.24236
200 1 1 -1.7616 0.34933 -0.62236
201 1 1 -1.7616 0.34933 -1.0024
202 1 1 -1.7616 0.72933 -1.0024
203 1 1 -1.7616 1.1093 -1.0024
204 1 1 -1.7616 1.1093 -1.3824
205 1 1 -1.3816 1.1093 -1.3824
206 1 1 -1.3816 1.1093 -1.0024
207 1 1 -1.3816 1.4893 -1.0024
208 1 1 -1.3816 1.4893 -0.62236
209 1 1 -1.3816 1.4893 -0.24236
210 1 1 -1.3816 1.1093 -0.24236
211 1 1 -1.3816 0.72933 -0.24236
212 1 1 -1.3816 0.34933 -0.24236
213 1 1 -1.3816 0.72933 -0.24236
214 1 1 -1.3816 0.72933 -0.62236
215 1 1 -1.3816 1.1093 -0.62236
216 1 1 -1.7616 1.1093 -0.62236
217 1 1 -1.7616 0.72933 -0.62236
218 1 1 -1.3816 0.72933 -0.62236
219 1 1 -1.3816 0.34933 -0.62236
220 1 1 -1.7616 0.34933 -0.62236
221 1 1 -1.7616 0.34933 -0.24236
222 1 1 -1.7616 0.72933 -0.24236
223 1 1 -1.7616 1.1093 -0.24236
224 1 1 -1.7616 1.4893 -0.24236
225 1 1 -2.1416 1.4893 -0.24236
226 1 1 -2.5216 1.4893 -0.24236
227 1 1 -2.9016 1.4893 -0.24236
228 1 1 -2.9016 1.4893 -0.62236
229 1 1 -2.9016 1.1093 -0.62236
230 1 1 -2.9016 1.4893 -0.62236
231 1 1 -2.9016 1.4893 -0.24236
232 1 1 -2.9016 1.4893 -0.62236
233 1 1 -3.2816 1.4893 -0.62236
234 1 1 -3.2816 1.1093 -0.62236
235 1 1 -2.9016 1.1093 -0.62236
236 1 1 -2.9016 1.1093 -0.24236
237 1 1 -3.2816 1.1093 -0.24236
238 1 1 -3.2816 1.1093 -0.62236
239 1 1 -2.9016 1.1093 -0.62236
240 1 1 -3.2816 1.1093 -0.62236
241 1 1 -3.6616 1.1093 -0.62236
242 1 1 -4.0416 1.1093 -0.62236
243 1 1 -4.4216 1.1093 -0.62236
244 1 1 -4.4216 0.72933 -0.62236
245 1 1 -4.4216 0.72933 -0.24236
246 1 1 -4.0416 0.72933 -0.24236
247 1 1 -4.0416 0.72933 -0.62236
248 1 1 -4.0416 0.72933 -1.0024
249 1 1 -4.4216 0.72933 -1.0024
250 1 1 -4.8016 0.72933 -1.0024
251 1 1 -4.8016 0.72933 -1.3824
252 1 1 -4.8016 0.72933 -1.7624
253 1 1 -4.8016 0.72933 -2.1424
254 1 1 -4.4216 0.72933 -2.1424
255 1 1 -4.4216 1.1093 -2.1424
256 1 1 -4.4216 1.1093 -1.7624
257 1 1 -4.4216 1.1093 -2.1424
258 1 1 -4.8016 1.1093 -2.1424
259 1 1 -4.4216 1.1093 -2.1424
260 1 1 -4.0416 1.1093 -2.1424
261 1 1 -4.0416 1.4893 -2.1424
262 1 1 -4.0416 1.1093 -2.1424
263 1 1 -4.0416 1.1093 -1.7624
264 1 1 -4.0416 1.1093 -1.3824
265 1 1 -4.4216 1.1093 -1.3824
266 1 1 -4.4216 1.1093 -1.0024
267 1 1 -4.4216 0.72933 -1.0024
268 1 1 -4.8016 0.72933 -1.0024
269 1 1 -4.8016 0.72933 -1.3824
270 1 1 -4.8016 0.72933 -1.7624
271 1 1 -4.8016 0.72933 -1.3824
272 1 1 -4.8016 1.1093 -1.3824
273 1 1 -5.1816 1.1093 -1.3824
274 1 1 -5.1816 1.4893 -1.3824
275 1 1 -5.1816 1.8693 -1.3824
276 1 1 -5.5616 1.8693 -1.3824
277 1 1 -5.5616 1.8693 -1.7624
278 1 1 -5.5616 1.8693 -2.1424
279 1 1 -5.5616 1.4893 -2.1424
280 1 1 -5.1816 1.4893 -2.1424
281 1 1 -4.8016 1.4893 -2.1424
282 1 1 -5.1816 1.4893 -2.1424
283 1 1 -5.1816 1.4893 -1.7624
284 1 1 -5.1816 1.8693 -1.7624
285 1 1 -5.1816 1.8693 -1.3824
286 1 1 -5.1816 1.8693 -1.0024
287 1 1 -5.1816 1.8693 -0.62236
288 1 1 -5.1816 1.8693 -1.0024
289 1 1 -5.1816 1.8693 -0.62236
290 1 1 -5.1816 1.4893 -0.62236
291 1 1 -5.5616 1.4893 -0.62236
292 1 1 -5.5616 1.4893 -0.24236
293 1 1 -5.5616 1.1093 -0.24236
294 1 1 -5.5616 1.1093 0.13764
295 1 1 -5.5616 1.1093 -0.24236
296 1 1 -5.5616 1.4893 -0.24236
297 1 1 -5.5616 1.4893 0.13764
298 1 1 -5.5616 1.8693 0.13764
299 1 1 -5.9416 1.8693 0.13764
300 1 1 -5.9416 1.8693 -0.24236
301 1 1 -5.9416 1.8693 0.13764
302 1 1 -5.9416 1.4893 0.13764
303 1 1 -5.9416 1.4893 -0.24236
304 1 1 -6.3216 1.4893 -0.24236
305 1 1 -6.3216 1.1093 -0.24236
306 1 1 -6.3216 1.4893 -0.24236
307 1 1 -6.3216 1.1093 -0.24236
308 1 1 -6.7016 1.1093 -0.24236
309 1 1 -7.0816 1.1093 -0.24236
310 1 1 -7.0816 1.1093 -0.62236
311 1 1 -7.0816 1.1093 -0.24236
312 1 1 -6.7016 1.1093 -0.24236
313 1 1 -6.3216 1.1093 -0.24236
314 1 1 -6.3216 1.4893 -0.24236
315 1 1 -6.3216 1.8693 -0.24236
316 1 1 -6.3216 1.8693 -0.62236
317 1 1 -6.7016 1.8693 -0.62236
318 1 1 -6.7016 1.8693 -0.24236
319 1 1 -6.7016 1.8693 0.13764
320 1 1 -6.7016 2.2493 0.13764
321 1 1 -7.0816 2.2493 0.13764
322 1 1 -7.0816 2.2493 -0.24236
323 1 1 -7.0816 2.2493 -0.62236
324 1 1 -7.0816 2.2493 -0.24236
325 1 1 -7.0816 2.2493 -0.62236
326 1 1 -7.0816 1.8693 -0.62236
327 1 1 -7.0816 1.4893 -0.62236
328 1 1 -7.0816 1.4893 -0.24236
329 1 1 -7.0816 1.8693 -0.24236
330 1 1 -6.7016 1.8693 -0.24236
331 1 1 -6.7016 1.4893 -0.24236
332 1 1 -6.7016 1.8693 -0.24236
333 1 1 -6.7016 1.8693 -0.62236
334 1 1 -6.7016 1.4893 -0.62236
335 1 1 -6.3216 1.4893 -0.62236
336 1 1 -6.3216 1.8693 -0.62236
337 1 1 -6.7016 1.8693 -0.62236
338 1 1 -6.7016 1.4893 -0.62236
339 1 1 -6.7016 1.1093 -0.62236
340 1 1 -6.7016 1.1093 -0.24236
341 1 1 -7.0816 1.1093 -0.24236
342 1 1 -7.0816 1.1093 0.13764
343 1 1 -6.7016 1.1093 0.13764
344 1 1 -6.7016 0.72933 0.13764
345 1 1 -6.7016 0.72933 -0.24236
346 1 1 -7.0816 0.72933 -0.24236
347 1 1 -7.0816 0.72933 0.13764
348 1 1 -7.0816 0.72933 0.51764
349 1 1 -7.0816 0.34933 0.51764
350 1 1 -6.7016 0.34933 0.51764
351 1 1 -6.7016 -0.030669 0.51764
352 1 1 -6.7016 -0.41067 0.51764
353 1 1 -6.7016 -0.030669 0.51764
354 1 1 -7.0816 -0.030669 0.51764
355 1 1 -6.7016 -0.030669 0.51764
356 1 1 -6.7016 0.34933 0.51764
357 1 1 -7.0816 0.34933 0.51764
358 1 1 -6.7016 0.34933 0.51764
359 1 1 -7.0816 0.34933 0.51764
360 1 1 -7.4616 0.34933 0.51764
361 1 1 -7.8416 0.34933 0.51764
362 1 1 -7.8416 0.34933 0.13764
363 1 1 -7.8416 0.34933 -0.24236
364 1 1 -7.8416 -0.030669 -0.24236
365 1 1 -7.8416 -0.030669 0.13764
366 1 1 -8.2216 -0.030669 0.13764
367 1 1 -8.2216 0.34933 0.13764
368 1 1 -8.2216 -0.030669 0.13764
369 1 1 -8.6016 -0.030669 0.13764
370 1 1 -8.6016 -0.030669 -0.24236
371 1 1 -8.6016 -0.030669 0.13764
372 1 1 -8.6016 -0.030669 0.51764
373 1 1 -8.6016 -0.030669 0.13764
374 1 1 -8.2216 -0.030669 0.13764
375 1 1 -8.2216 0.34933 0.13764
376 1 1 -7.8416 0.34933 0.13764
377 1 1 -7.4616 0.34933 0.13764
378 1 1 -7.8416 0.34933 0.13764
379 1 1 -7.8416 0.34933 -0.24236
380 1 1 -7.8416 0.72933 -0.24236
381 1 1 -7.8416 0.34933 -0.24236
382 1 1 -8.2216 0.34933 -0.24236
383 1 1 -8.2216 0.72933 -0.24236
384 1 1 -8.2216 0.72933 0.13764
385 1 1 -8.2216 0.72933 -0.24236
386 1 1 -8.2216 1.1093 -0.24236
387 1 1 -8.2216 1.1093 0.13764
388 1 1 -8.6016 1.1093 0.13764
389 1 1 -8.6016 1.1093 0.51764
390 1 1 -8.6016 1.1093 0.13764
391 1 1 -8.6016 1.1093 0.51764
392 1 1 -8.9816 1.1093 0.51764
393 1 1 -8.9816 1.4893 0.51764
394 1 1 -9.3616 1.4893 0.51764
395 1 1 -8.9816 1.4893 0.51764
396 1 1 -8.9816 1.1093 0.51764
397 1 1 -8.9816 1.4893 0.51764
398 1 1 -8.9816 1.8693 0.51764
399 1 1 -9.3616 1.8693 0.51764
400 1 1 -9.3616 2.2493 0.51764
401 1 1 -8.9816 2.2493 0.51764
402 1 1 -9.3616 2.2493 0.51764
403 1 1 -9.3616 2.6293 0.51764
404 1 1 -9.3616 2.2493 0.51764
405 1 1 -9.3616 2.6293 0.51764
406 1 1 -9.3616 2.6293 0.89764
407 1 1 -9.3616 2.6293 1.2776
408 1 1 -8.9816 2.6293 1.2776
409 1 1 -8.9816 2.6293 0.89764
410 1 1 -8.9816 2.6293 0.51764
411 1 1 -8.9816 2.6293 0.13764
412 1 1 -9.3616 2.6293 0.13764
413 1 1 -9.3616 2.2493 0.13764
414 1 1 -9.3616 1.8693 0.13764
415 1 1 -8.9816 1.8693 0.13764
416 1 1 -8.9816 1.8693 0.51764
417 1 1 -8.9816 1.8693 0.89764
418 1 1 -8.9816 1.4893 0.89764
419 1 1 -8.9816 1.1093 0.89764
420 1 1 -8.9816 1.4893 0.89764
421 1 1 -8.9816 1.1093 0.89764
422 1 1 -8.9816 1.1093 1.2776
423 1 1 -8.9816 0.72933 1.2776
424 1 1 -8.9816 0.72933 0.89764
425 1 1 -8.9816 0.34933 0.89764
426 1 1 -9.3616 0.34933 0.89764
427 1 1 -9.3616 0.34933 1.2776
428 1 1 -9.3616 0.72933 1.2776
429 1 1 -8.9816 0.72933 1.2776
430 1 1 -9.3616 0.72933 1.2776
431 1 1 -9.3616 1.1093 1.2776
432 1 1 -9.7416 1.1093 1.2776
433 1 1 -9.7416 1.1093 0.89764
434 1 1 -9.7416 0.72933 0.89764
435 1 1 -9.7416 1.1093 0.89764
436 1 1 -9.7416 1.1093 1.2776
437 1 1 -9.7416 1.4893 1.2776
438 1 1 -9.7416 1.8693 1.2776
439 1 1 -9.7416 1.8693 0.89764
440 1 1 -9.7416 1.4893 0.89764
441 1 1 -10.1216 1.4893 0.89764
442 1 1 -10.1216 1.4893 1.2776
443 1 1 -10.1216 1.8693 1.2776
444 1 1 -9.7416 1.8693 1.2776
445 1 1 -9.3616 1.8693 1.2776
446 1 1 -9.7416 1.8693 1.2776
447 1 1 -9.7416 2.2493 1.2776
448 1 1 -9.7416 2.2493 0.89764
449 1 1 -9.3616 2.2493 0.89764
450 1 1 -8.9816 2.2493 0.89764
451 1 2 -1.0816 -4.9707 0.13764
452 1 2 -1.0816 -4.5907 0.51764
453 1 2 -1.4616 -4.2107 0.51764
454 1 2 -1.0816 -4.2107 1.6576
455 1 2 -1.0816 -3.0707 2.0376
456 1 2 -1.0816 -2.3107 2.0376
457 1 2 -1.0816 -2.3107 1.2776
458 1 2 -1.0816 -2.3107 1.2776
459 1 2 -0.70159 -1.1707 0.51764
460 1 2 -1.0816 -1.1707 -0.62236
461 1 2 -0.70159 -0.79067 0.13764
462 1 2 -1.4616 -1.1707 0.51764
463 1 2 -1.8416 -0.41067 0.89764
464 1 2 -1.8416 -0.030669 -0.24236
465 1 2 -1.8416 -0.030669 -1.0024
466 1 2 -1.4616 -0.41067 -1.0024
467 1 2 -1.4616 -0.41067 -0.24236
468 1 2 -1.8416 -0.79067 -0.24236
469 1 2 -1.4616 -2.3107 0.13764
470 1 2 -1.0816 -1.9307 0.13764
471 1 2 -1.0816 -1.5507 -1.0024
472 1 2 -1.4616 -1.1707 -0.24236
473 1 2 -1.4616 -0.41067 -0.24236
474 1 2 -0.32159 -0.030669 -1.0024
475 1 2 -0.32159 -0.41067 -0.62236
476 1 2 -1.4616 0.34933 -1.0024
477 1 2 -1.0816 1.4893 -0.24236
478 1 2 -1.4616 0.72933 -0.62236
479 1 2 -1.8416 1.4893 -0.24236
480 1 3 -2.2216 1.4893 -0.24236
481 1 3 -2.9816 1.1093 -0.62236
482 1 3 -3.7416 1.1093 -0.62236
483 1 3 -4.5016 0.72933 -1.0024
484 1 3 -4.5016 1.1093 -2.1424
485 1 3 -4.1216 1.1093 -1.0024
486 1 3 -4.8816 1.4893 -1.3824
487 1 3 -4.8816 1.4893 -2.1424
488 1 3 -4.8816 1.4893 -0.62236
489 1 3 -5.2616 1.8693 0.13764
490 1 3 -6.0216 1.4893 -0.24236
491 1 3 -6.0216 1.4893 -0.24236
492 1 3 -6.7816 2.2493 -0.24236
493 1 3 -6.4016 1.8693 -0.24236
494 1 3 -6.4016 1.4893 -0.62236
495 1 3 -6.7816 0.72933 -0.24236
496 1 3 -6.7816 -0.030669 0.51764
497 1 3 -7.5416 0.34933 0.13764
498 1 3 -8.3016 -0.030669 -0.24236
499 1 3 -7.5416 0.34933 0.13764
500 1 3 -7.9216 1.1093 -0.24236
501 1 3 -9.0616 1.4893 0.51764
502 1 3 -9.0616 2.2493 0.51764
503 1 3 -8.6816 2.6293 0.51764
504 1 3 -8.6816 1.4893 0.89764
505 1 3 -9.0616 0.34933 0.89764
506 1 3 -9.4416 0.72933 0.89764
507 1 3 -9.8216 1.4893 1.2776
508 1 3 -8.6816 2.2493 0.89764
509 2 1 0.22294 13.3175 -7.1552
510 2 1 -0.15706 13.3175 -7.1552
511 2 1 -0.15706 12.9375 -7.1552
512 2 1 -0.15706 12.5575 -7.1552
513 2 1 -0.15706 12.9375 -7.1552
514 2 1 -0.15706 12.5575 -7.1552
515 2 1 -0.15706 12.5575 -7.5352
516 2 1 -0.15706 12.9375 -7.5352
517 2 1 -0.15706 12.5575 -7.5352
518 2 1 -0.15706 12.5575 -7.1552
519 2 1 -0.15706 12.5575 -6.7752
520 2 1 -0.15706 12.1775 -6.7752
521 2 1 -0.15706 12.1775 -7.1552
522 2 1 -0.15706 12.5575 -7.1552
523 2 1 -0.15706 12.1775 -7.1552
524 2 1 -0.15706 12.1775 -7.5352
525 2 1 -0.15706 12.5575 -7.5352
526 2 1 -0.53706 12.5575 -7.5352
527 2 1 -0.53706 12.1775 -7.5352
528 2 1 -0.53706 12.1775 -7.1552
529 2 1 -0.53706 12.1775 -6.7752
530 2 1 -0.91706 12.1775 -6.7752
531 2 1 -0.91706 12.5575 -6.7752
532 2 1 -1.2971 12.5575 -6.7752
533 2 1 -1.2971 12.5575 -6.3952
534 2 1 -1.2971 12.5575 -6.7752
535 2 1 -1.2971 12.9375 -6.7752
536 2 1 -0.91706 12.9375 -6.7752
537 2 1 -0.91706 12.9375 -7.1552
538 2 1 -1.2971 12.9375 -7.1552
539 2 1 -1.2971 13.3175 -7.1552
540 2 1 -1.6771 13.3175 -7.1552
541 2 1 -2.0571 13.3175 -7.1552
542 2 1 -2.4371 13.3175 -7.1552
543 2 1 -2.4371 13.3175 -7.5352
544 2 1 -2.4371 13.3175 -7.9152
545 2 1 -2.4371 13.3175 -7.5352
546 2 1 -2.8171 13.3175 -7.5352
547 2 1 -3.1971 13.3175 -7.5352
548 2 1 -3.1971 12.9375 -7.5352
549 2 1 -3.1971 13.3175 -7.5352
550 2 1 -3.1971 13.3175 -7.1552
551 2 1 -3.1971 12.9375 -7.1552
552 2 1 -3.1971 12.5575 -7.1552
553 2 1 -2.8171 12.5575 -7.1552
554 2 1 -2.8171 12.1775 -7.1552
555 2 1 -3.1971 12.1775 -7.1552
556 2 1 -2.8171 12.1775 -7.1552
557 2 1 -2.4371 12.1775 -7.1552
558 2 1 -2.4371 12.1775 -7.5352
559 2 1 -2.4371 11.7975 -7.5352
560 2 1 -2.8171 11.7975 -7.5352
561 2 1 -2.8171 11.7975 -7.1552
562 2 1 -2.8171 11.7975 -6.7752
563 2 1 -2.8171 11.7975 -6.3952
564 2 1 -2.8171 11.4175 -6.3952
565 2 1 -2.4371 11.4175 -6.3952
566 2 1 -2.0571 11.4175 -6.3952
567 2 1 -2.4371 11.4175 -6.3952
568 2 1 -2.4371 11.7975 -6.3952
569 2 1 -2.4371 11.7975 -6.7752
570 2 1 -2.4371 11.4175 -6.7752
571 2 1 -2.4371 11.4175 -7.1552
572 2 1 -2.4371 11.4175 -7.5352
573 2 1 -2.4371 11.0375 -7.5352
574 2 1 -2.4371 11.0375 -7.1552
575 2 1 -2.4371 10.6575 -7.1552
576 2 1 -2.4371 10.6575 -7.5352
577 2 1 -2.8171 10.6575 -7.5352
578 2 1 -3.1971 10.6575 -7.5352
579 2 1 -3.5771 10.6575 -7.5352
580 2 1 -3.1971 10.6575 -7.5352
581 2 1 -3.1971 10.2775 -7.5352
582 2 1 -3.5771 10.2775 -7.5352
583 2 1 -3.5771 9.8975 -7.5352
584 2 1 -3.9571 9.8975 -7.5352
585 2 1 -3.9571 9.8975 -7.9152
586 2 1 -3.5771 9.8975 -7.9152
587 2 1 -3.5771 10.2775 -7.9152
588 2 1 -3.9571 10.2775 -7.9152
589 2 1 -3.9571 10.2775 -8.2952
590 2 1 -3.9571 10.2775 -8.6752
591 2 1 -3.9571 10.6575 -8.6752
592 2 1 -3.9571 10.6575 -8.2952
593 2 1 -4.3371 10.6575 -8.2952
594 2 1 -4.3371 10.6575 -8.6752
595 2 1 -4.7171 10.6575 -8.6752
596 2 1 -4.7171 10.6575 -9.0552
597 2 1 -4.7171 11.0375 -9.0552
598 2 1 -5.0971 11.0375 -9.0552
599 2 1 -5.0971 11.0375 -8.6752
600 2 1 -5.0971 11.0375 -8.2952
601 2 1 -5.0971 11.0375 -7.9152
602 2 1 -5.0971 11.0375 -8.2952
603 2 1 -5.0971 11.0375 -8.6752
604 2 1 -5.0971 10.6575 -8.6752
605 2 1 -5.4771 10.6575 -8.6752
606 2 1 -5.4771 10.2775 -8.6752
607 2 1 -5.8571 10.2775 -8.6752
608 2 1 -5.4771 10.2775 -8.6752
609 2 1 -5.0971 10.2775 -8.6752
610 2 1 -5.0971 10.6575 -8.6752
611 2 1 -5.0971 11.0375 -8.6752
612 2 1 -5.0971 11.0375 -8.2952
613 2 1 -5.0971 11.0375 -8.6752
614 2 1 -5.4771 11.0375 -8.6752
615 2 1 -5.4771 11.4175 -8.6752
616 2 1 -5.0971 11.4175 -8.6752
617 2 1 -5.0971 11.4175 -9.0552
618 2 1 -5.0971 11.0375 -9.0552
619 2 1 -5.4771 11.0375 -9.0552
620 2 1 -5.8571 11.0375 -9.0552
621 2 1 -5.8571 10.6575 -9.0552
622 2 1 -5.8571 10.6575 -8.6752
623 2 1 -5.8571 10.6575 -9.0552
624 2 1 -5.8571 10.6575 -9.4352
625 2 1 -5.8571 10.6575 -9.0552
626 2 1 -5.8571 10.6575 -9.4352
627 2 1 -5.4771 10.6575 -9.4352
628 2 1 -5.0971 10.6575 -9.4352
629 2 1 -4.7171 10.6575 -9.4352
630 2 1 -4.7171 11.0375 -9.4352
631 2 1 -4.7171 11.4175 -9.4352
632 2 1 -5.0971 11.4175 -9.4352
633 2 1 -5.0971 11.4175 -9.8152
634 2 1 -4.7171 11.4175 -9.8152
635 2 1 -5.0971 11.4175 -9.8152
636 2 1 -5.0971 11.0375 -9.8152
637 2 1 -5.4771 11.0375 -9.8152
638 2 1 -5.8571 11.0375 -9.8152
639 2 1 -5.8571 10.6575 -9.8152
640 2 1 -5.8571 10.2775 -9.8152
641 2 1 -5.8571 10.6575 -9.8152
642 2 1 -5.8571 10.2775 -9.8152
643 2 1 -5.8571 10.2775 -10.1952
644 2 1 -5.8571 9.8975 -10.1952
645 2 1 -5.8571 9.8975 -10.5752
646 2 1 -5.4771 9.8975 -10.5752
647 2 1 -5.4771 10.2775 -10.5752
648 2 1 -5.4771 9.8975 -10.5752
649 2 1 -5.4771 9.8975 -10.1952
650 2 1 -5.4771 9.8975 -9.8152
651 2 1 -5.4771 10.2775 -9.8152
652 2 1 -5.4771 9.8975 -9.8152
653 2 1 -5.4771 9.5175 -9.8152
654 2 1 -5.8571 9.5175 -9.8152
655 2 1 -5.4771 9.5175 -9.8152
656 2 1 -5.0971 9.5175 -9.8152
657 2 1 -5.0971 9.5175 -9.4352
658 2 1 -5.0971 9.1375 -9.4352
659 2 1 -5.0971 8.7575 -9.4352
660 2 1 -5.0971 8.7575 -9.8152
661 2 1 -5.0971 8.7575 -9.4352
662 2 1 -5.0971 8.3775 -9.4352
663 2 1 -5.0971 8.3775 -9.0552
664 2 1 -5.0971 8.7575 -9.0552
665 2 1 -5.0971 8.7575 -8.6752
666 2 1 -5.0971 8.3775 -8.6752
667 2 1 -5.0971 8.3775 -9.0552
668 2 1 -5.0971 7.9975 -9.0552
669 2 1 -5.4771 7.9975 -9.0552
670 2 1 -5.8571 7.9975 -9.0552
671 2 1 -5.8571 8.3775 -9.0552
672 2 1 -5.8571 8.3775 -8.6752
673 2 1 -5.8571 7.9975 -8.6752
674 2 1 -6.2371 7.9975 -8.6752
675 2 1 -5.8571 7.9975 -8.6752
676 2 1 -5.4771 7.9975 -8.6752
677 2 1 -5.8571 7.9975 -8.6752
678 2 1 -5.4771 7.9975 -8.6752
679 2 1 -5.4771 8.3775 -8.6752
680 2 1 -5.4771 7.9975 -8.6752
681 2 1 -5.4771 7.9975 -8.2952
682 2 1 -5.4771 7.9975 -8.6752
683 2 1 -5.4771 7.9975 -8.2952
684 2 1 -5.8571 7.9975 -8.2952
685 2 1 -5.8571 7.9975 -8.6752
686 2 1 -5.8571 8.3775 -8.6752
687 2 1 -5.8571 7.9975 -8.6752
688 2 1 -5.4771 7.9975 -8.6752
689 2 1 -5.0971 7.9975 -8.6752
690 2 1 -5.0971 7.9975 -8.2952
691 2 1 -4.7171 7.9975 -8.2952
692 2 1 -4.7171 8.3775 -8.2952
693 2 1 -4.7171 8.7575 -8.2952
694 2 1 -4.7171 9.1375 -8.2952
695 2 1 -4.3371 9.1375 -8.2952
696 2 1 -4.3371 9.5175 -8.2952
697 2 1 -4.3371 9.5175 -8.6752
698 2 1 -4.3371 9.1375 -8.6752
699 2 1 -3.9571 9.1375 -8.6752
700 2 1 -3.9571 9.1375 -8.2952
701 2 1 -3.9571 8.7575 -8.2952
702 2 1 -3.9571 8.3775 -8.2952
703 2 1 -3.9571 8.7575 -8.2952
704 2 1 -3.9571 9.1375 -8.2952
705 2 1 -3.9571 9.1375 -8.6752
706 2 1 -3.9571 9.1375 -8.2952
707 2 1 -3.9571 8.7575 -8.2952
708 2 1 -3.9571 8.7575 -7.9152
709 2 1 -3.9571 9.1375 -7.9152
710 2 1 -3.9571 9.5175 -7.9152
711 2 1 -3.5771 9.5175 -7.9152
712 2 1 -3.5771 9.5175 -8.2952
713 2 1 -3.5771 9.5175 -8.6752
714 2 1 -3.5771 9.8975 -8.6752
715 2 1 -3.5771 9.8975 -9.0552
716 2 1 -3.5771 9.5175 -9.0552
717 2 1 -3.9571 9.5175 -9.0552
718 2 1 -3.9571 9.5175 -9.4352
719 2 1 -3.5771 9.5175 -9.4352
720 2 1 -3.5771 9.5175 -9.8152
721 2 1 -3.5771 9.5175 -10.1952
722 2 1 -3.1971 9.5175 -10.1952
723 2 1 -3.5771 9.5175 -10.1952
724 2 1 -3.1971 9.5175 -10.1952
725 2 1 -2.8171 9.5175 -10.1952
726 2 1 -3.1971 9.5175 -10.1952
727 2 1 -3.1971 9.8975 -10.1952
728 2 1 -2.8171 9.8975 -10.1952
729 2 1 -2.8171 9.8975 -9.8152
730 2 1 -2.8171 9.5175 -9.8152
731 2 1 -2.8171 9.5175 -9.4352
732 2 1 -2.8171 9.1375 -9.4352
733 2 1 -2.8171 8.7575 -9.4352
734 2 1 -2.8171 8.3775 -9.4352
735 2 1 -2.8171 8.3775 -9.8152
736 2 1 -2.8171 8.3775 -10.1952
737 2 1 -3.1971 8.3775 -10.1952
738 2 1 -3.1971 8.3775 -9.8152
739 2 1 -3.1971 8.3775 -9.4352
740 2 1 -3.1971 8.7575 -9.4352
741 2 1 -3.1971 8.3775 -9.4352
742 2 1 -3.1971 8.7575 -9.4352
743 2 1 -3.1971 8.7575 -9.0552
744 2 1 -3.1971 9.1375 -9.0552
745 2 1 -3.1971 9.5175 -9.0552
746 2 1 -3.1971 9.5175 -9.4352
747 2 1 -3.5771 9.5175 -9.4352
748 2 1 -3.5771 9.5175 -9.0552
749 2 1 -3.5771 9.5175 -8.6752
750 2 1 -3.5771 9.8975 -8.6752
751 2 1 -3.5771 9.8975 -9.0552
752 2 1 -3.1971 9.8975 -9.0552
753 2 1 -3.1971 9.8975 -8.6752
754 2 1 -3.1971 9.8975 -9.0552
755 2 1 -3.1971 9.8975 -9.4352
756 2 1 -3.1971 9.8975 -9.8152
757 2 1 -2.8171 9.8975 -9.8152
758 2 1 -2.8171 9.8975 -9.4352
759 2 1 -2.8171 9.8975 -9.0552
760 2 1 -3.1971 9.8975 -9.0552
761 2 1 -3.1971 9.8975 -8.6752
762 2 1 -3.1971 9.8975 -9.0552
763 2 1 -3.1971 10.2775 -9.0552
764 2 1 -3.1971 10.2775 -8.6752
765 2 1 -3.1971 9.8975 -8.6752
766 2 1 -3.1971 9.8975 -9.0552
767 2 1 -3.1971 9.8975 -8.6752
768 2 1 -3.1971 9.5175 -8.6752
769 2 1 -3.5771 9.5175 -8.6752
770 2 1 -3.1971 9.5175 -8.6752
771 2 1 -3.1971 9.1375 -8.6752
772 2 1 -3.1971 8.7575 -8.6752
773 2 1 -3.1971 8.3775 -8.6752
774 2 1 -3.1971 8.3775 -9.0552
775 2 1 -3.1971 7.9975 -9.0552
776 2 1 -3.1971 7.6175 -9.0552
777 2 1 -3.1971 7.2375 -9.0552
778 2 1 -3.1971 7.6175 -9.0552
779 2 1 -3.1971 7.9975 -9.0552
780 2 1 -2.8171 7.9975 -9.0552
781 2 1 -2.8171 7.9975 -8.6752
782 2 1 -2.8171 7.9975 -9.0552
783 2 1 -2.8171 7.6175 -9.0552
784 2 1 -2.8171 7.2375 -9.0552
785 2 1 -2.8171 7.2375 -9.4352
786 2 1 -2.8171 6.8575 -9.4352
787 2 1 -2.8171 6.8575 -9.0552
788 2 1 -2.8171 6.8575 -8.6752
789 2 1 -2.4371 6.8575 -8.6752
790 2 1 -2.4371 7.2375 -8.6752
791 2 1 -2.4371 6.8575 -8.6752
792 2 1 -2.4371 6.8575 -9.0552
793 2 1 -2.0571 6.8575 -9.0552
794 2 1 -2.0571 6.8575 -9.4352
795 2 1 -2.0571 6.4775 -9.4352
796 2 1 -2.4371 6.4775 -9.4352
797 2 1 -2.4371 6.8575 -9.4352
798 2 1 -2.4371 6.4775 -9.4352
799 2 1 -2.4371 6.4775 -9.8152
800 2 1 -2.4371 6.8575 -9.8152
801 2 1 -2.0571 6.8575 -9.8152
802 2 1 -2.0571 6.8575 -9.4352
803 2 1 -2.0571 7.2375 -9.4352
804 2 1 -2.0571 6.8575 -9.4352
805 2 1 -2.4371 6.8575 -9.4352
806 2 1 -2.4371 6.8575 -9.0552
807 2 1 -2.0571 6.8575 -9.0552
808 2 1 -2.4371 6.8575 -9.0552
809 2 1 -2.8171 6.8575 -9.0552
810 2 1 -3.1971 6.8575 -9.0552
811 2 1 -3.5771 6.8575 -9.0552
812 2 1 -3.5771 6.4775 -9.0552
813 2 1 -3.1971 6.4775 -9.0552
814 2 1 -3.1971 6.4775 -9.4352
815 2 1 -3.1971 6.8575 -9.4352
816 2 1 -3.1971 7.2375 -9.4352
817 2 1 -3.5771 7.2375 -9.4352
818 2 1 -3.5771 7.2375 -9.8152
819 2 1 -3.5771 6.8575 -9.8152
820 2 1 -3.1971 6.8575 -9.8152
821 2 1 -3.1971 6.8575 -10.1952
822 2 1 -3.5771 6.8575 -10.1952
823 2 1 -3.1971 6.8575 -10.1952
824 2 1 -3.1971 6.4775 -10.1952
825 2 1 -2.8171 6.4775 -10.1952
826 2 1 -2.8171 6.0975 -10.1952
827 2 1 -2.8171 6.0975 -10.5752
828 2 1 -2.8171 6.0975 -10.1952
829 2 1 -2.8171 5.7175 -10.1952
830 2 1 -2.4371 5.7175 -10.1952
831 2 1 -2.0571 5.7175 -10.1952
832 2 1 -2.0571 6.0975 -10.1952
833 2 1 -2.4371 6.0975 -10.1952
834 2 1 -2.4371 6.0975 -9.8152
835 2 1 -2.4371 6.0975 -9.4352
836 2 1 -2.8171 6.0975 -9.4352
837 2 1 -2.4371 6.0975 -9.4352
838 2 1 -2.8171 6.0975 -9.4352
839 2 1 -2.8171 6.0975 -9.0552
840 2 1 -2.4371 6.0975 -9.0552
841 2 1 -2.4371 6.0975 -8.6752
842 2 1 -2.8171 6.0975 -8.6752
843 2 1 -3.1971 6.0975 -8.6752
844 2 1 -3.5771 6.0975 -8.6752
845 2 1 -3.1971 6.0975 -8.6752
846 2 1 -3.5771 6.0975 -8.6752
847 2 1 -3.5771 6.4775 -8.6752
848 2 1 -3.5771 6.0975 -8.6752
849 2 1 -3.5771 5.7175 -8.6752
850 2 1 -3.1971 5.7175 -8.6752
851 2 1 -3.1971 5.7175 -8.2952
852 2 1 -3.1971 5.7175 -8.6752
853 2 1 -3.1971 5.3375 -8.6752
854 2 1 -2.8171 5.3375 -8.6752
855 2 1 -2.8171 5.7175 -8.6752
856 2 1 -3.1971 5.7175 -8.6752
857 2 1 -3.1971 5.7175 -8.2952
858 2 1 -3.1971 5.3375 -8.2952
859 2 1 -3.1971 5.3375 -8.6752
860 2 1 -3.5771 5.3375 -8.6752
861 2 1 -3.5771 5.3375 -8.2952
862 2 1 -3.9571 5.3375 -8.2952
863 2 1 -4.3371 5.3375 -8.2952
864 2 1 -4.3371 5.3375 -7.9152
865 2 1 -4.3371 4.9575 -7.9152
866 2 1 -4.7171 4.9575 -7.9152
867 2 1 -4.7171 4.9575 -7.5352
868 2 1 -4.7171 5.3375 -7.5352
869 2 1 -4.7171 5.3375 -7.1552
870 2 1 -5.0971 5.3375 -7.1552
871 2 1 -5.0971 5.3375 -6.7752
872 2 1 -5.0971 5.7175 -6.7752
873 2 1 -5.0971 5.3375 -6.7752
874 2 1 -5.4771 5.3375 -6.7752
875 2 1 -5.4771 4.9575 -6.7752
876 2 1 -5.4771 4.5775 -6.7752
877 2 1 -5.0971 4.5775 -6.7752
878 2 1 -5.0971 4.1975 -6.7752
879 2 1 -5.0971 4.5775 -6.7752
880 2 1 -5.0971 4.5775 -7.1552
881 2 1 -5.4771 4.5775 -7.1552
882 2 1 -5.4771 4.5775 -6.7752
883 2 1 -5.4771 4.9575 -6.7752
884 2 1 -5.4771 4.5775 -6.7752
885 2 1 -5.4771 4.5775 -6.3952
886 2 1 -5.4771 4.5775 -6.7752
887 2 1 -5.4771 4.9575 -6.7752
888 2 1 -5.4771 4.9575 -7.1552
889 2 1 -5.0971 4.9575 -7.1552
890 2 1 -5.0971 4.5775 -7.1552
891 2 1 -5.4771 4.5775 -7.1552
892 2 1 -5.4771 4.1975 -7.1552
893 2 1 -5.4771 3.8175 -7.1552
894 2 1 -5.4771 3.8175 -7.5352
895 2 1 -5.4771 3.8175 -7.1552
896 2 1 -5.4771 3.8175 -7.5352
897 2 1 -5.4771 4.1975 -7.5352
898 2 1 -5.4771 4.5775 -7.5352
899 2 1 -5.8571 4.5775 -7.5352
900 2 1 -6.2371 4.5775 -7.5352
901 2 1 -6.2371 4.9575 -7.5352
902 2 1 -6.2371 4.9575 -7.1552
903 2 1 -6.2371 4.5775 -7.1552
904 2 1 -6.2371 4.1975 -7.1552
905 2 1 -6.2371 4.5775 -7.1552
906 2 1 -6.2371 4.5775 -7.5352
907 2 1 -6.6171 4.5775 -7.5352
908 2 1 -6.6171 4.9575 -7.5352
909 2 1 -6.6171 4.5775 -7.5352
910 2 1 -6.9971 4.5775 -7.5352
911 2 1 -7.3771 4.5775 -7.5352
912 2 1 -7.3771 4.5775 -7.1552
913 2 1 -7.3771 4.9575 -7.1552
914 2 1 -7.7571 4.9575 -7.1552
915 2 1 -7.7571 4.5775 -7.1552
916 2 1 -7.7571 4.5775 -6.7752
917 2 1 -8.1371 4.5775 -6.7752
918 2 1 -8.5171 4.5775 -6.7752
919 2 1 -8.8971 4.5775 -6.7752
920 2 1 -8.5171 4.5775 -6.7752
921 2 1 -8.1371 4.5775 -6.7752
922 2 1 -8.1371 4.1975 -6.7752
923 2 1 -8.1371 3.8175 -6.7752
924 2 1 -8.1371 3.8175 -6.3952
925 2 1 -7.7571 3.8175 -6.3952
926 2 1 -7.7571 3.8175 -6.7752
927 2 1 -8.1371 3.8175 -6.7752
928 2 1 -8.1371 3.8175 -7.1552
929 2 1 -8.1371 4.1975 -7.1552
930 2 1 -8.1371 3.8175 -7.1552
931 2 1 -8.1371 3.4375 -7.1552
932 2 1 -8.1371 3.4375 -6.7752
933 2 1 -8.5171 3.4375 -6.7752
934 2 1 -8.1371 3.4375 -6.7752
935 2 1 -7.7571 3.4375 -6.7752