LAMMPS chain data file

25450 atoms
25350 bonds
0 angles
0 dihedrals
0 impropers

4 atom types
2 bond types
0 angle types
0 dihedral types
0 improper types

-50.00000 50.00000 xlo xhi
-12.50000 12.50000 ylo yhi
-12.50000 12.50000 zlo zhi

Masses

1  5.65487
2  5.65487
3  5.65487
4 28.27433

Atoms

1 1 1 -11.1938 -1.0121 -1.5297
2 1 1 -10.8138 -1.0121 -1.5297
3 1 1 -10.8138 -1.0121 -1.1497
4 1 1 -10.8138 -1.3921 -1.1497
5 1 1 -10.8138 -1.3921 -0.76972
6 1 1 -11.1938 -1.3921 -0.76972
7 1 1 -11.1938 -1.3921 -0.38972
8 1 1 -11.1938 -1.7721 -0.38972
9 1 1 -11.1938 -1.3921 -0.38972
10 1 1 -11.1938 -1.7721 -0.38972
11 1 1 -11.1938 -1.7721 -0.76972
12 1 1 -11.1938 -2.1521 -0.76972
13 1 1 -11.1938 -2.1521 -0.38972
14 1 1 -11.1938 -1.7721 -0.38972
15 1 1 -11.1938 -1.3921 -0.38972
16 1 1 -10.8138 -1.3921 -0.38972
17 1 1 -10.8138 -1.0121 -0.38972
18 1 1 -11.1938 -1.0121 -0.38972
19 1 1 -11.1938 -1.0121 -0.76972
20 1 1 -11.1938 -1.3921 -0.76972
21 1 1 -11.1938 -1.3921 -1.1497
22 1 1 -11.1938 -1.0121 -1.1497
23 1 1 -11.5738 -1.0121 -1.1497
24 1 1 -11.5738 -1.3921 -1.1497
25 1 1 -11.9538 -1.3921 -1.1497
26 1 1 -11.5738 -1.3921 -1.1497
27 1 1 -11.5738 -1.0121 -1.1497
28 1 1 -11.5738 -1.3921 -1.1497
29 1 1 -11.5738 -1.7721 -1.1497
30 1 1 -11.5738 -1.3921 -1.1497
31 1 1 -11.1938 -1.3921 -1.1497
32 1 1 -11.5738 -1.3921 -1.1497
33 1 1 -11.5738 -1.3921 -0.76972
34 1 1 -11.1938 -1.3921 -0.76972
35 1 1 -11.1938 -1.3921 -0.38972
36 1 1 -10.8138 -1.3921 -0.38972
37 1 1 -10.8138 -1.3921 -0.0097244
38 1 1 -10.8138 -1.0121 -0.0097244
39 1 1 -10.4338 -1.0121 -0.0097244
40 1 1 -10.4338 -1.0121 -0.38972
41 1 1 -10.0538 -1.0121 -0.38972
42 1 1 -10.0538 -0.63209 -0.38972
43 1 1 -10.0538 -0.25209 -0.38972
44 1 1 -10.0538 -0.25209 -0.0097244
45 1 1 -10.4338 -0.25209 -0.0097244
46 1 1 -10.4338 -0.25209 -0.38972
47 1 1 -10.4338 0.12791 -0.38972
48 1 1 -10.8138 0.12791 -0.38972
49 1 1 -10.8138 0.50791 -0.38972
50 1 1 -11.1938 0.50791 -0.38972
51 1 1 -10.8138 0.50791 -0.38972
52 1 1 -10.8138 0.50791 -0.76972
53 1 1 -10.4338 0.50791 -0.76972
54 1 1 -10.4338 0.12791 -0.76972
55 1 1 -10.4338 -0.25209 -0.76972
56 1 1 -10.8138 -0.25209 -0.76972
57 1 1 -10.8138 -0.63209 -0.76972
58 1 1 -10.8138 -0.63209 -0.38972
59 1 1 -10.8138 -0.25209 -0.38972
60 1 1 -10.8138 -0.25209 -0.0097244
61 1 1 -10.8138 -0.63209 -0.0097244
62 1 1 -10.8138 -1.0121 -0.0097244
63 1 1 -10.8138 -1.3921 -0.0097244
64 1 1 -10.4338 -1.3921 -0.0097244
65 1 1 -10.4338 -1.0121 -0.0097244
66 1 1 -10.4338 -0.63209 -0.0097244
67 1 1 -10.4338 -0.63209 0.37028
68 1 1 -10.4338 -1.0121 0.37028
69 1 1 -10.8138 -1.0121 0.37028
70 1 1 -11.1938 -1.0121 0.37028
71 1 1 -11.5738 -1.0121 0.37028
72 1 1 -11.5738 -0.63209 0.37028
73 1 1 -11.5738 -1.0121 0.37028
74 1 1 -11.5738 -0.63209 0.37028
75 1 1 -11.5738 -1.0121 0.37028
76 1 1 -11.5738 -1.3921 0.37028
77 1 1 -11.9538 -1.3921 0.37028
78 1 1 -11.9538 -1.0121 0.37028
79 1 1 -11.9538 -0.63209 0.37028
80 1 1 -11.9538 -0.63209 -0.0097244
81 1 1 -11.9538 -0.63209 -0.38972
82 1 1 -11.9538 -0.63209 -0.76972
83 1 1 -12.3338 -0.63209 -0.76972
84 1 1 -12.7138 -0.63209 -0.76972
85 1 1 -12.7138 -0.63209 -0.38972
86 1 1 -13.0938 -0.63209 -0.38972
87 1 1 -13.0938 -1.0121 -0.38972
88 1 1 -12.7138 -1.0121 -0.38972
89 1 1 -12.7138 -1.0121 -0.76972
90 1 1 -12.3338 -1.0121 -0.76972
91 1 1 -11.9538 -1.0121 -0.76972
92 1 1 -11.9538 -0.63209 -0.76972
93 1 1 -11.9538 -0.25209 -0.76972
94 1 1 -11.9538 -0.63209 -0.76972
95 1 1 -11.9538 -0.63209 -1.1497
96 1 1 -11.9538 -0.25209 -1.1497
97 1 1 -11.5738 -0.25209 -1.1497
98 1 1 -11.5738 -0.63209 -1.1497
99 1 1 -11.9538 -0.63209 -1.1497
100 1 1 -12.3338 -0.63209 -1.1497
101 1 1 -12.3338 -0.25209 -1.1497
102 1 1 -12.3338 -0.63209 -1.1497
103 1 1 -12.3338 -0.63209 -1.5297
104 1 1 -11.9538 -0.63209 -1.5297
105 1 1 -12.3338 -0.63209 -1.5297
106 1 1 -12.3338 -0.63209 -1.1497
107 1 1 -12.7138 -0.63209 -1.1497
108 1 1 -12.7138 -0.63209 -1.5297
109 1 1 -12.7138 -1.0121 -1.5297
110 1 1 -12.7138 -1.0121 -1.9097
111 1 1 -12.7138 -1.0121 -2.2897
112 1 1 -12.7138 -1.0121 -1.9097
113 1 1 -12.7138 -1.0121 -1.5297
114 1 1 -13.0938 -1.0121 -1.5297
115 1 1 -12.7138 -1.0121 -1.5297
116 1 1 -12.7138 -0.63209 -1.5297
117 1 1 -12.7138 -0.63209 -1.1497
118 1 1 -12.7138 -0.63209 -0.76972
119 1 1 -13.0938 -0.63209 -0.76972
120 1 1 -12.7138 -0.63209 -0.76972
121 1 1 -12.7138 -0.63209 -0.38972
122 1 1 -12.3338 -0.63209 -0.38972
123 1 1 -11.9538 -0.63209 -0.38972
124 1 1 -11.9538 -1.0121 -0.38972
125 1 1 -11.9538 -1.0121 -0.0097244
126 1 1 -11.9538 -0.63209 -0.0097244
127 1 1 -11.9538 -0.25209 -0.0097244
128 1 1 -11.9538 0.12791 -0.0097244
129 1 1 -11.9538 -0.25209 -0.0097244
130 1 1 -12.3338 -0.25209 -0.0097244
131 1 1 -11.9538 -0.25209 -0.0097244
132 1 1 -11.9538 -0.25209 0.37028
133 1 1 -12.3338 -0.25209 0.37028
134 1 1 -12.3338 0.12791 0.37028
135 1 1 -11.9538 0.12791 0.37028
136 1 1 -11.5738 0.12791 0.37028
137 1 1 -11.5738 0.12791 0.75028
138 1 1 -11.5738 -0.25209 0.75028
139 1 1 -11.5738 -0.25209 0.37028
140 1 1 -11.5738 -0.25209 -0.0097244
141 1 1 -11.5738 0.12791 -0.0097244
142 1 1 -11.5738 0.50791 -0.0097244
143 1 1 -11.5738 0.88791 -0.0097244
144 1 1 -11.1938 0.88791 -0.0097244
145 1 1 -11.5738 0.88791 -0.0097244
146 1 1 -11.5738 0.88791 -0.38972
147 1 1 -11.5738 1.2679 -0.38972
148 1 1 -11.9538 1.2679 -0.38972
149 1 1 -12.3338 1.2679 -0.38972
150 1 1 -12.3338 1.6479 -0.38972
151 1 1 -12.3338 1.6479 -0.0097244
152 1 1 -12.3338 2.0279 -0.0097244
153 1 1 -12.3338 1.6479 -0.0097244
154 1 1 -12.3338 1.2679 -0.0097244
155 1 1 -12.7138 1.2679 -0.0097244
156 1 1 -12.3338 1.2679 -0.0097244
157 1 1 -12.7138 1.2679 -0.0097244
158 1 1 -12.3338 1.2679 -0.0097244
159 1 1 -12.7138 1.2679 -0.0097244
160 1 1 -12.7138 0.88791 -0.0097244
161 1 1 -12.7138 0.50791 -0.0097244
162 1 1 -12.7138 0.50791 0.37028
163 1 1 -12.3338 0.50791 0.37028
164 1 1 -12.7138 0.50791 0.37028
165 1 1 -12.7138 0.50791 0.75028
166 1 1 -12.3338 0.50791 0.75028
167 1 1 -12.3338 0.12791 0.75028
168 1 1 -12.3338 0.12791 0.37028
169 1 1 -12.3338 0.12791 0.75028
170 1 1 -12.3338 0.12791 0.37028
171 1 1 -12.3338 0.12791 -0.0097244
172 1 1 -12.7138 0.12791 -0.0097244
173 1 1 -12.7138 0.12791 -0.38972
174 1 1 -13.0938 0.12791 -0.38972
175 1 1 -13.0938 0.12791 -0.0097244
176 1 1 -13.0938 0.12791 0.37028
177 1 1 -13.0938 0.12791 -0.0097244
178 1 1 -13.0938 0.50791 -0.0097244
179 1 1 -13.0938 0.50791 0.37028
180 1 1 -13.0938 0.88791 0.37028
181 1 1 -12.7138 0.88791 0.37028
182 1 1 -12.3338 0.88791 0.37028
183 1 1 -12.3338 0.88791 -0.0097244
184 1 1 -12.3338 1.2679 -0.0097244
185 1 1 -11.9538 1.2679 -0.0097244
186 1 1 -12.3338 1.2679 -0.0097244
187 1 1 -12.3338 1.6479 -0.0097244
188 1 1 -12.3338 1.6479 0.37028
189 1 1 -12.3338 1.6479 0.75028
190 1 1 -11.9538 1.6479 0.75028
191 1 1 -12.3338 1.6479 0.75028
192 1 1 -12.3338 1.6479 1.1303
193 1 1 -12.7138 1.6479 1.1303
194 1 1 -12.7138 1.2679 1.1303
195 1 1 -13.0938 1.2679 1.1303
196 1 1 -13.0938 1.2679 1.5103
197 1 1 -13.0938 1.2679 1.8903
198 1 1 -13.0938 0.88791 1.8903
199 1 1 -13.0938 0.50791 1.8903
200 1 1 -13.0938 0.12791 1.8903
201 1 1 -13.0938 0.12791 2.2703
202 1 1 -13.4738 0.12791 2.2703
203 1 1 -13.8538 0.12791 2.2703
204 1 1 -13.8538 -0.25209 2.2703
205 1 1 -13.8538 0.12791 2.2703
206 1 1 -13.8538 0.50791 2.2703
207 1 1 -13.4738 0.50791 2.2703
208 1 1 -13.4738 0.50791 1.8903
209 1 1 -13.0938 0.50791 1.8903
210 1 1 -13.0938 0.50791 1.5103
211 1 1 -13.0938 0.50791 1.1303
212 1 1 -13.0938 0.88791 1.1303
213 1 1 -12.7138 0.88791 1.1303
214 1 1 -12.3338 0.88791 1.1303
215 1 1 -12.7138 0.88791 1.1303
216 1 1 -12.7138 0.88791 0.75028
217 1 1 -12.7138 0.88791 1.1303
218 1 1 -12.7138 0.88791 0.75028
219 1 1 -13.0938 0.88791 0.75028
220 1 1 -13.0938 1.2679 0.75028
221 1 1 -12.7138 1.2679 0.75028
222 1 1 -12.7138 1.2679 0.37028
223 1 1 -12.7138 1.2679 -0.0097244
224 1 1 -12.7138 1.2679 0.37028
225 1 1 -12.7138 1.2679 0.75028
226 1 1 -12.3338 1.2679 0.75028
227 1 1 -12.7138 1.2679 0.75028
228 1 1 -13.0938 1.2679 0.75028
229 1 1 -13.4738 1.2679 0.75028
230 1 1 -13.4738 1.2679 0.37028
231 1 1 -13.8538 1.2679 0.37028
232 1 1 -13.8538 1.2679 -0.0097244
233 1 1 -13.8538 1.6479 -0.0097244
234 1 1 -13.8538 1.6479 -0.38972
235 1 1 -13.8538 1.6479 -0.76972
236 1 1 -14.2338 1.6479 -0.76972
237 1 1 -14.2338 1.6479 -0.38972
238 1 1 -14.2338 1.6479 -0.76972
239 1 1 -14.2338 1.6479 -0.38972
240 1 1 -13.8538 1.6479 -0.38972
241 1 1 -14.2338 1.6479 -0.38972
242 1 1 -13.8538 1.6479 -0.38972
243 1 1 -13.4738 1.6479 -0.38972
244 1 1 -13.0938 1.6479 -0.38972
245 1 1 -12.7138 1.6479 -0.38972
246 1 1 -13.0938 1.6479 -0.38972
247 1 1 -13.0938 1.6479 -0.0097244
248 1 1 -13.0938 1.6479 -0.38972
249 1 1 -13.0938 1.6479 -0.76972
250 1 1 -13.4738 1.6479 -0.76972
251 1 1 -13.4738 2.0279 -0.76972
252 1 1 -13.4738 2.0279 -1.1497
253 1 1 -13.4738 2.0279 -0.76972
254 1 1 -13.8538 2.0279 -0.76972
255 1 1 -13.8538 1.6479 -0.76972
256 1 1 -14.2338 1.6479 -0.76972
257 1 1 -14.2338 2.0279 -0.76972
258 1 1 -14.6138 2.0279 -0.76972
259 1 1 -14.2338 2.0279 -0.76972
260 1 1 -14.2338 2.0279 -0.38972
261 1 1 -14.2338 2.0279 -0.0097244
262 1 1 -14.6138 2.0279 -0.0097244
263 1 1 -14.6138 2.0279 0.37028
264 1 1 -14.6138 2.0279 0.75028
265 1 1 -14.6138 1.6479 0.75028
266 1 1 -14.6138 2.0279 0.75028
267 1 1 -14.6138 1.6479 0.75028
268 1 1 -14.6138 1.6479 1.1303
269 1 1 -14.6138 1.2679 1.1303
270 1 1 -14.6138 1.2679 0.75028
271 1 1 -14.2338 1.2679 0.75028
272 1 1 -14.2338 1.2679 0.37028
273 1 1 -13.8538 1.2679 0.37028
274 1 1 -13.4738 1.2679 0.37028
275 1 1 -13.4738 1.6479 0.37028
276 1 1 -13.0938 1.6479 0.37028
277 1 1 -13.0938 2.0279 0.37028
278 1 1 -13.0938 2.0279 0.75028
279 1 1 -13.0938 1.6479 0.75028
280 1 1 -13.4738 1.6479 0.75028
281 1 1 -13.4738 1.2679 0.75028
282 1 1 -13.4738 1.2679 0.37028
283 1 1 -13.4738 0.88791 0.37028
284 1 1 -13.4738 0.88791 -0.0097244
285 1 1 -13.0938 0.88791 -0.0097244
286 1 1 -13.0938 1.2679 -0.0097244
287 1 1 -12.7138 1.2679 -0.0097244
288 1 1 -12.7138 1.2679 -0.38972
289 1 1 -12.7138 1.6479 -0.38972
290 1 1 -12.3338 1.6479 -0.38972
291 1 1 -12.3338 2.0279 -0.38972
292 1 1 -12.3338 1.6479 -0.38972
293 1 1 -12.7138 1.6479 -0.38972
294 1 1 -12.7138 1.6479 -0.76972
295 1 1 -12.7138 1.6479 -0.38972
296 1 1 -13.0938 1.6479 -0.38972
297 1 1 -13.0938 1.6479 -0.0097244
298 1 1 -13.4738 1.6479 -0.0097244
299 1 1 -13.4738 1.2679 -0.0097244
300 1 1 -13.4738 1.2679 -0.38972
301 1 1 -13.4738 1.6479 -0.38972
302 1 1 -13.4738 1.6479 -0.76972
303 1 1 -13.4738 1.6479 -0.38972
304 1 1 -13.4738 2.0279 -0.38972
305 1 1 -13.4738 2.0279 -0.76972
306 1 1 -13.0938 2.0279 -0.76972
307 1 1 -13.4738 2.0279 -0.76972
308 1 1 -13.4738 1.6479 -0.76972
309 1 1 -13.4738 1.2679 -0.76972
310 1 1 -13.4738 0.88791 -0.76972
311 1 1 -13.4738 0.88791 -0.38972
312 1 1 -13.4738 0.88791 -0.0097244
313 1 1 -13.4738 1.2679 -0.0097244
314 1 1 -13.4738 1.6479 -0.0097244
315 1 1 -13.4738 1.6479 -0.38972
316 1 1 -13.0938 1.6479 -0.38972
317 1 1 -13.0938 1.6479 -0.0097244
318 1 1 -12.7138 1.6479 -0.0097244
319 1 1 -12.7138 2.0279 -0.0097244
320 1 1 -12.3338 2.0279 -0.0097244
321 1 1 -12.7138 2.0279 -0.0097244
322 1 1 -12.7138 1.6479 -0.0097244
323 1 1 -12.7138 1.6479 -0.38972
324 1 1 -12.7138 1.2679 -0.38972
325 1 1 -12.7138 1.2679 -0.76972
326 1 1 -12.7138 1.6479 -0.76972
327 1 1 -12.7138 1.6479 -0.38972
328 1 1 -12.7138 1.6479 -0.76972
329 1 1 -12.7138 1.2679 -0.76972
330 1 1 -13.0938 1.2679 -0.76972
331 1 1 -13.0938 0.88791 -0.76972
332 1 1 -13.0938 0.88791 -0.38972
333 1 1 -13.0938 0.88791 -0.76972
334 1 1 -13.0938 0.50791 -0.76972
335 1 1 -13.0938 0.88791 -0.76972
336 1 1 -13.0938 0.88791 -0.38972
337 1 1 -13.4738 0.88791 -0.38972
338 1 1 -13.4738 0.88791 -0.0097244
339 1 1 -13.4738 0.88791 -0.38972
340 1 1 -13.4738 0.88791 -0.0097244
341 1 1 -13.0938 0.88791 -0.0097244
342 1 1 -13.0938 0.88791 0.37028
343 1 1 -13.0938 0.88791 0.75028
344 1 1 -13.0938 0.50791 0.75028
345 1 1 -13.0938 0.50791 0.37028
346 1 1 -13.0938 0.50791 0.75028
347 1 1 -13.0938 0.50791 1.1303
348 1 1 -13.0938 0.88791 1.1303
349 1 1 -13.0938 0.50791 1.1303
350 1 1 -12.7138 0.50791 1.1303
351 1 1 -13.0938 0.50791 1.1303
352 1 1 -12.7138 0.50791 1.1303
353 1 1 -13.0938 0.50791 1.1303
354 1 1 -13.0938 0.88791 1.1303
355 1 1 -13.0938 0.50791 1.1303
356 1 1 -13.0938 0.50791 1.5103
357 1 1 -13.0938 0.12791 1.5103
358 1 1 -13.4738 0.12791 1.5103
359 1 1 -13.4738 -0.25209 1.5103
360 1 1 -13.0938 -0.25209 1.5103
361 1 1 -13.0938 -0.63209 1.5103
362 1 1 -13.0938 -1.0121 1.5103
363 1 1 -13.0938 -1.3921 1.5103
364 1 1 -13.0938 -1.7721 1.5103
365 1 1 -13.4738 -1.7721 1.5103
366 1 1 -13.8538 -1.7721 1.5103
367 1 1 -13.4738 -1.7721 1.5103
368 1 1 -13.4738 -1.7721 1.8903
369 1 1 -13.8538 -1.7721 1.8903
370 1 1 -13.8538 -1.7721 1.5103
371 1 1 -13.8538 -1.7721 1.8903
372 1 1 -14.2338 -1.7721 1.8903
373 1 1 -13.8538 -1.7721 1.8903
374 1 1 -13.8538 -1.7721 1.5103
375 1 1 -13.8538 -1.7721 1.1303
376 1 1 -13.8538 -1.7721 1.5103
377 1 1 -13.8538 -1.7721 1.1303
378 1 1 -13.4738 -1.7721 1.1303
379 1 1 -13.4738 -1.3921 1.1303
380 1 1 -13.4738 -1.3921 0.75028
381 1 1 -13.4738 -1.0121 0.75028
382 1 1 -13.4738 -1.3921 0.75028
383 1 1 -13.4738 -1.3921 1.1303
384 1 1 -13.8538 -1.3921 1.1303
385 1 1 -13.8538 -1.7721 1.1303
386 1 1 -13.8538 -1.3921 1.1303
387 1 1 -13.8538 -1.3921 1.5103
388 1 1 -13.8538 -1.3921 1.1303
389 1 1 -13.4738 -1.3921 1.1303
390 1 1 -13.4738 -1.0121 1.1303
391 1 1 -13.4738 -0.63209 1.1303
392 1 1 -13.4738 -0.63209 0.75028
393 1 1 -13.0938 -0.63209 0.75028
394 1 1 -13.0938 -0.63209 0.37028
395 1 1 -13.0938 -1.0121 0.37028
396 1 1 -13.0938 -1.0121 0.75028
397 1 1 -13.0938 -1.0121 0.37028
398 1 1 -13.0938 -1.0121 -0.0097244
399 1 1 -13.0938 -1.3921 -0.0097244
400 1 1 -12.7138 -1.3921 -0.0097244
401 1 1 -12.7138 -1.0121 -0.0097244
402 1 1 -12.7138 -1.0121 -0.38972
403 1 1 -13.0938 -1.0121 -0.38972
404 1 1 -13.0938 -1.3921 -0.38972
405 1 1 -13.0938 -1.7721 -0.38972
406 1 1 -13.0938 -1.3921 -0.38972
407 1 1 -13.0938 -1.3921 -0.0097244
408 1 1 -13.0938 -1.3921 0.37028
409 1 1 -13.0938 -1.7721 0.37028
410 1 1 -13.0938 -1.7721 0.75028
411 1 1 -13.0938 -1.7721 0.37028
412 1 1 -13.0938 -1.7721 -0.0097244
413 1 1 -12.7138 -1.7721 -0.0097244
414 1 1 -12.7138 -1.7721 -0.38972
415 1 1 -12.7138 -1.7721 -0.76972
416 1 1 -12.3338 -1.7721 -0.76972
417 1 1 -12.3338 -1.7721 -1.1497
418 1 1 -12.3338 -1.7721 -1.5297
419 1 1 -12.3338 -1.7721 -1.1497
420 1 1 -12.3338 -1.3921 -1.1497
421 1 1 -11.9538 -1.3921 -1.1497
422 1 1 -11.9538 -1.3921 -0.76972
423 1 1 -11.9538 -1.3921 -0.38972
424 1 1 -11.9538 -1.3921 -0.0097244
425 1 1 -11.9538 -1.7721 -0.0097244
426 1 1 -11.9538 -1.7721 0.37028
427 1 1 -11.9538 -2.1521 0.37028
428 1 1 -11.9538 -2.5321 0.37028
429 1 1 -11.9538 -2.5321 -0.0097244
430 1 1 -11.9538 -2.5321 -0.38972
431 1 1 -11.5738 -2.5321 -0.38972
432 1 1 -11.5738 -2.5321 -0.0097244
433 1 1 -11.5738 -2.5321 -0.38972
434 1 1 -11.5738 -2.1521 -0.38972
435 1 1 -11.5738 -2.1521 -0.76972
436 1 1 -11.5738 -2.5321 -0.76972
437 1 1 -11.5738 -2.1521 -0.76972
438 1 1 -11.5738 -2.1521 -0.38972
439 1 1 -11.5738 -1.7721 -0.38972
440 1 1 -11.5738 -1.7721 -0.76972
441 1 1 -11.1938 -1.7721 -0.76972
442 1 1 -10.8138 -1.7721 -0.76972
443 1 1 -10.8138 -1.7721 -0.38972
444 1 1 -11.1938 -1.7721 -0.38972
445 1 1 -11.1938 -2.1521 -0.38972
446 1 1 -11.1938 -2.1521 -0.76972
447 1 1 -11.1938 -2.1521 -1.1497
448 1 1 -11.1938 -2.5321 -1.1497
449 1 1 -10.8138 -2.5321 -1.1497
450 1 1 -11.1938 -2.5321 -1.1497
451 1 2 -10.8938 -1.0121 -1.5297
452 1 2 -10.8938 -1.3921 -0.38972
453 1 2 -10.5138 -1.0121 -0.38972
454 1 2 -11.6538 -1.3921 -1.1497
455 1 2 -11.2738 -1.3921 -0.76972
456 1 2 -9.7538 -1.0121 -0.38972
457 1 2 -10.5138 0.50791 -0.38972
458 1 2 -10.5138 -0.63209 -0.76972
459 1 2 -10.1338 -1.0121 -0.0097244
460 1 2 -11.2738 -1.0121 0.37028
461 1 2 -11.6538 -0.63209 -0.38972
462 1 2 -12.4138 -1.0121 -0.76972
463 1 2 -11.2738 -0.25209 -1.1497
464 1 2 -12.0338 -0.63209 -1.5297
465 1 2 -12.4138 -1.0121 -1.5297
466 1 2 -12.4138 -0.63209 -0.38972
467 1 2 -11.6538 -0.25209 -0.0097244
468 1 2 -11.2738 0.12791 0.75028
469 1 2 -11.2738 0.88791 -0.0097244
470 1 2 -12.0338 1.6479 -0.0097244
471 1 2 -12.4138 0.50791 -0.0097244
472 1 2 -12.0338 0.12791 0.75028
473 1 2 -12.7938 0.12791 -0.0097244
474 1 2 -11.6538 1.2679 -0.0097244
475 1 2 -12.4138 1.6479 1.1303
476 1 2 -12.7938 0.12791 2.2703
477 1 2 -12.7938 0.50791 1.8903
478 1 2 -12.4138 0.88791 1.1303
479 1 2 -12.4138 1.2679 0.75028
480 1 3 -12.0338 1.2679 0.75028
481 1 3 -13.5538 1.6479 -0.38972
482 1 3 -13.5538 1.6479 -0.38972
483 1 3 -13.1738 1.6479 -0.76972
484 1 3 -14.3138 2.0279 -0.76972
485 1 3 -14.3138 2.0279 0.75028
486 1 3 -13.1738 1.2679 0.37028
487 1 3 -13.1738 1.2679 0.37028
488 1 3 -12.0338 1.6479 -0.38972
489 1 3 -13.1738 1.6479 -0.0097244
490 1 3 -12.7938 2.0279 -0.76972
491 1 3 -13.1738 1.6479 -0.0097244
492 1 3 -12.4138 1.6479 -0.0097244
493 1 3 -12.7938 1.2679 -0.76972
494 1 3 -13.1738 0.88791 -0.0097244
495 1 3 -12.7938 0.50791 0.75028
496 1 3 -12.7938 0.88791 1.1303
497 1 3 -12.7938 -1.0121 1.5103
498 1 3 -13.5538 -1.7721 1.5103
499 1 3 -13.1738 -1.7721 1.1303
500 1 3 -13.5538 -1.3921 1.1303
501 1 3 -12.7938 -0.63209 0.37028
502 1 3 -12.4138 -1.0121 -0.38972
503 1 3 -12.7938 -1.7721 0.75028
504 1 3 -12.0338 -1.7721 -1.5297
505 1 3 -11.6538 -1.7721 0.37028
506 1 3 -11.2738 -2.1521 -0.38972
507 1 3 -10.5138 -1.7721 -0.76972
508 1 3 -10.8938 -2.5321 -1.1497
509 2 1 1.9841 1.3554 4.7248
510 2 1 2.3641 1.3554 4.7248
511 2 1 2.3641 0.97543 4.7248
512 2 1 2.7441 0.97543 4.7248
513 2 1 2.7441 0.59543 4.7248
514 2 1 2.3641 0.59543 4.7248
515 2 1 2.3641 0.21543 4.7248
516 2 1 2.3641 0.21543 5.1048
517 2 1 1.9841 0.21543 5.1048
518 2 1 1.9841 0.59543 5.1048
519 2 1 2.3641 0.59543 5.1048
520 2 1 2.3641 0.59543 4.7248
521 2 1 2.3641 0.59543 4.3448
522 2 1 2.7441 0.59543 4.3448
523 2 1 2.7441 0.97543 4.3448
524 2 1 2.3641 0.97543 4.3448
525 2 1 2.3641 0.59543 4.3448
526 2 1 2.3641 0.59543 4.7248
527 2 1 1.9841 0.59543 4.7248
528 2 1 2.3641 0.59543 4.7248
529 2 1 2.3641 0.97543 4.7248
530 2 1 2.3641 0.59543 4.7248
531 2 1 2.3641 0.59543 5.1048
532 2 1 2.3641 0.21543 5.1048
533 2 1 2.3641 0.21543 5.4848
534 2 1 2.3641 -0.16457 5.4848
535 2 1 2.3641 -0.16457 5.8648
536 2 1 1.9841 -0.16457 5.8648
537 2 1 1.6041 -0.16457 5.8648
538 2 1 1.9841 -0.16457 5.8648
539 2 1 1.9841 0.21543 5.8648
540 2 1 1.9841 -0.16457 5.8648
541 2 1 1.9841 -0.16457 6.2448
542 2 1 1.9841 -0.16457 6.6248
543 2 1 1.9841 0.21543 6.6248
544 2 1 1.9841 -0.16457 6.6248
545 2 1 2.3641 -0.16457 6.6248
546 2 1 2.3641 -0.54457 6.6248
547 2 1 1.9841 -0.54457 6.6248
548 2 1 1.9841 -0.92457 6.6248
549 2 1 1.6041 -0.92457 6.6248
550 2 1 1.6041 -0.54457 6.6248
551 2 1 1.6041 -0.92457 6.6248
552 2 1 1.9841 -0.92457 6.6248
553 2 1 2.3641 -0.92457 6.6248
554 2 1 1.9841 -0.92457 6.6248
555 2 1 1.6041 -0.92457 6.6248
556 2 1 1.9841 -0.92457 6.6248
557 2 1 1.9841 -0.92457 7.0048
558 2 1 1.9841 -0.92457 7.3848
559 2 1 2.3641 -0.92457 7.3848
560 2 1 1.9841 -0.92457 7.3848
561 2 1 1.9841 -1.3046 7.3848
562 2 1 1.6041 -1.3046 7.3848
563 2 1 1.6041 -0.92457 7.3848
564 2 1 1.6041 -1.3046 7.3848
565 2 1 1.6041 -1.3046 7.0048
566 2 1 1.6041 -1.3046 7.3848
567 2 1 1.9841 -1.3046 7.3848
568 2 1 2.3641 -1.3046 7.3848
569 2 1 2.3641 -1.3046 7.7648
570 2 1 2.3641 -0.92457 7.7648
571 2 1 2.3641 -0.92457 7.3848
572 2 1 2.3641 -0.92457 7.7648
573 2 1 2.7441 -0.92457 7.7648
574 2 1 2.3641 -0.92457 7.7648
575 2 1 2.7441 -0.92457 7.7648
576 2 1 2.7441 -0.54457 7.7648
577 2 1 2.7441 -0.54457 7.3848
578 2 1 2.7441 -0.54457 7.7648
579 2 1 3.1241 -0.54457 7.7648
580 2 1 3.1241 -0.16457 7.7648
581 2 1 3.1241 -0.54457 7.7648
582 2 1 3.1241 -0.54457 7.3848
583 2 1 3.1241 -0.16457 7.3848
584 2 1 3.1241 0.21543 7.3848
585 2 1 2.7441 0.21543 7.3848
586 2 1 2.7441 0.21543 7.7648
587 2 1 2.7441 0.21543 8.1448
588 2 1 2.7441 -0.16457 8.1448
589 2 1 2.7441 -0.54457 8.1448
590 2 1 2.7441 -0.92457 8.1448
591 2 1 3.1241 -0.92457 8.1448
592 2 1 3.1241 -0.54457 8.1448
593 2 1 3.1241 -0.16457 8.1448
594 2 1 3.1241 -0.16457 8.5248
595 2 1 2.7441 -0.16457 8.5248
596 2 1 2.7441 -0.16457 8.1448
597 2 1 2.7441 0.21543 8.1448
598 2 1 2.7441 0.21543 7.7648
599 2 1 2.7441 0.21543 7.3848
600 2 1 2.3641 0.21543 7.3848
601 2 1 2.3641 0.21543 7.7648
602 2 1 2.3641 0.21543 8.1448
603 2 1 2.3641 0.59543 8.1448
604 2 1 1.9841 0.59543 8.1448
605 2 1 1.9841 0.59543 7.7648
606 2 1 1.6041 0.59543 7.7648
607 2 1 1.9841 0.59543 7.7648
608 2 1 1.9841 0.97543 7.7648
609 2 1 1.9841 1.3554 7.7648
610 2 1 1.6041 1.3554 7.7648
611 2 1 1.6041 0.97543 7.7648
612 2 1 1.9841 0.97543 7.7648
613 2 1 1.9841 1.3554 7.7648
614 2 1 2.3641 1.3554 7.7648
615 2 1 2.3641 0.97543 7.7648
616 2 1 2.7441 0.97543 7.7648
617 2 1 2.7441 0.59543 7.7648
618 2 1 2.7441 0.21543 7.7648
619 2 1 3.1241 0.21543 7.7648
620 2 1 3.5041 0.21543 7.7648
621 2 1 3.5041 0.21543 7.3848
622 2 1 3.5041 0.21543 7.0048
623 2 1 3.5041 0.21543 7.3848
624 2 1 3.8841 0.21543 7.3848
625 2 1 3.8841 0.21543 7.0048
626 2 1 3.5041 0.21543 7.0048
627 2 1 3.1241 0.21543 7.0048
628 2 1 3.1241 -0.16457 7.0048
629 2 1 3.1241 -0.54457 7.0048
630 2 1 3.1241 -0.54457 7.3848
631 2 1 2.7441 -0.54457 7.3848
632 2 1 3.1241 -0.54457 7.3848
633 2 1 3.1241 -0.54457 7.0048
634 2 1 3.1241 -0.16457 7.0048
635 2 1 3.1241 -0.16457 6.6248
636 2 1 3.1241 -0.16457 6.2448
637 2 1 3.1241 -0.16457 5.8648
638 2 1 3.5041 -0.16457 5.8648
639 2 1 3.5041 -0.16457 6.2448
640 2 1 3.5041 -0.54457 6.2448
641 2 1 3.5041 -0.54457 5.8648
642 2 1 3.5041 -0.54457 5.4848
643 2 1 3.5041 -0.92457 5.4848
644 2 1 3.5041 -1.3046 5.4848
645 2 1 3.5041 -1.3046 5.1048
646 2 1 3.5041 -1.3046 5.4848
647 2 1 3.5041 -1.3046 5.8648
648 2 1 3.5041 -1.6846 5.8648
649 2 1 3.5041 -1.3046 5.8648
650 2 1 3.8841 -1.3046 5.8648
651 2 1 3.8841 -1.3046 6.2448
652 2 1 3.8841 -0.92457 6.2448
653 2 1 3.8841 -0.54457 6.2448
654 2 1 3.5041 -0.54457 6.2448
655 2 1 3.8841 -0.54457 6.2448
656 2 1 3.8841 -0.16457 6.2448
657 2 1 3.8841 -0.16457 5.8648
658 2 1 3.8841 -0.54457 5.8648
659 2 1 3.5041 -0.54457 5.8648
660 2 1 3.1241 -0.54457 5.8648
661 2 1 3.1241 -0.54457 6.2448
662 2 1 3.5041 -0.54457 6.2448
663 2 1 3.5041 -0.54457 6.6248
664 2 1 3.1241 -0.54457 6.6248
665 2 1 3.1241 -0.92457 6.6248
666 2 1 3.1241 -0.92457 7.0048
667 2 1 3.1241 -0.92457 6.6248
668 2 1 3.1241 -0.92457 6.2448
669 2 1 3.1241 -0.92457 5.8648
670 2 1 3.1241 -0.54457 5.8648
671 2 1 3.5041 -0.54457 5.8648
672 2 1 3.5041 -0.92457 5.8648
673 2 1 3.5041 -0.92457 6.2448
674 2 1 3.5041 -0.92457 6.6248
675 2 1 3.5041 -0.92457 7.0048
676 2 1 3.8841 -0.92457 7.0048
677 2 1 3.8841 -0.54457 7.0048
678 2 1 4.2641 -0.54457 7.0048
679 2 1 3.8841 -0.54457 7.0048
680 2 1 3.5041 -0.54457 7.0048
681 2 1 3.5041 -0.16457 7.0048
682 2 1 3.5041 -0.16457 7.3848
683 2 1 3.8841 -0.16457 7.3848
684 2 1 3.8841 0.21543 7.3848
685 2 1 3.8841 0.21543 7.7648
686 2 1 3.8841 -0.16457 7.7648
687 2 1 4.2641 -0.16457 7.7648
688 2 1 3.8841 -0.16457 7.7648
689 2 1 3.8841 0.21543 7.7648
690 2 1 3.8841 0.59543 7.7648
691 2 1 4.2641 0.59543 7.7648
692 2 1 4.2641 0.21543 7.7648
693 2 1 4.2641 0.59543 7.7648
694 2 1 3.8841 0.59543 7.7648
695 2 1 3.5041 0.59543 7.7648
696 2 1 3.5041 0.59543 7.3848
697 2 1 3.5041 0.97543 7.3848
698 2 1 3.8841 0.97543 7.3848
699 2 1 3.8841 0.97543 7.7648
700 2 1 3.5041 0.97543 7.7648
701 2 1 3.8841 0.97543 7.7648
702 2 1 3.5041 0.97543 7.7648
703 2 1 3.8841 0.97543 7.7648
704 2 1 4.2641 0.97543 7.7648
705 2 1 4.2641 0.97543 7.3848
706 2 1 3.8841 0.97543 7.3848
707 2 1 3.8841 0.97543 7.7648
708 2 1 4.2641 0.97543 7.7648
709 2 1 4.6441 0.97543 7.7648
710 2 1 4.6441 0.97543 8.1448
711 2 1 4.6441 1.3554 8.1448
712 2 1 4.6441 1.3554 8.5248
713 2 1 5.0241 1.3554 8.5248
714 2 1 5.0241 0.97543 8.5248
715 2 1 5.4041 0.97543 8.5248
716 2 1 5.0241 0.97543 8.5248
717 2 1 5.0241 1.3554 8.5248
718 2 1 5.0241 1.3554 8.9048
719 2 1 4.6441 1.3554 8.9048
720 2 1 5.0241 1.3554 8.9048
721 2 1 5.0241 1.3554 9.2848
722 2 1 5.0241 1.7354 9.2848
723 2 1 5.0241 2.1154 9.2848
724 2 1 5.4041 2.1154 9.2848
725 2 1 5.4041 2.1154 9.6648
726 2 1 5.7841 2.1154 9.6648
727 2 1 5.7841 2.1154 9.2848
728 2 1 5.7841 1.7354 9.2848
729 2 1 6.1641 1.7354 9.2848
730 2 1 6.1641 1.7354 9.6648
731 2 1 6.1641 1.3554 9.6648
732 2 1 6.1641 1.3554 9.2848
733 2 1 6.1641 1.3554 8.9048
734 2 1 6.1641 0.97543 8.9048
735 2 1 6.5441 0.97543 8.9048
736 2 1 6.9241 0.97543 8.9048
737 2 1 6.9241 0.97543 9.2848
738 2 1 6.9241 0.59543 9.2848
739 2 1 7.3041 0.59543 9.2848
740 2 1 7.6841 0.59543 9.2848
741 2 1 7.6841 0.59543 9.6648
742 2 1 8.0641 0.59543 9.6648
743 2 1 8.4441 0.59543 9.6648
744 2 1 8.0641 0.59543 9.6648
745 2 1 8.0641 0.59543 9.2848
746 2 1 8.0641 0.59543 8.9048
747 2 1 7.6841 0.59543 8.9048
748 2 1 7.6841 0.59543 8.5248
749 2 1 7.3041 0.59543 8.5248
750 2 1 7.3041 0.59543 8.9048
751 2 1 7.3041 0.97543 8.9048
752 2 1 7.3041 1.3554 8.9048
753 2 1 6.9241 1.3554 8.9048
754 2 1 6.9241 0.97543 8.9048
755 2 1 6.9241 0.59543 8.9048
756 2 1 6.5441 0.59543 8.9048
757 2 1 6.1641 0.59543 8.9048
758 2 1 6.1641 0.21543 8.9048
759 2 1 6.1641 0.59543 8.9048
760 2 1 6.1641 0.59543 8.5248
761 2 1 6.1641 0.59543 8.9048
762 2 1 6.1641 0.21543 8.9048
763 2 1 6.5441 0.21543 8.9048
764 2 1 6.5441 0.21543 8.5248
765 2 1 6.5441 -0.16457 8.5248
766 2 1 6.1641 -0.16457 8.5248
767 2 1 6.1641 -0.16457 8.9048
768 2 1 6.1641 -0.16457 8.5248
769 2 1 6.1641 -0.54457 8.5248
770 2 1 6.5441 -0.54457 8.5248
771 2 1 6.5441 -0.92457 8.5248
772 2 1 6.5441 -0.92457 8.9048
773 2 1 6.5441 -0.54457 8.9048
774 2 1 6.1641 -0.54457 8.9048
775 2 1 6.5441 -0.54457 8.9048
776 2 1 6.5441 -0.54457 8.5248
777 2 1 6.1641 -0.54457 8.5248
778 2 1 6.1641 -0.54457 8.9048
779 2 1 6.1641 -0.92457 8.9048
780 2 1 6.1641 -1.3046 8.9048
781 2 1 5.7841 -1.3046 8.9048
782 2 1 5.7841 -0.92457 8.9048
783 2 1 5.4041 -0.92457 8.9048
784 2 1 5.4041 -0.92457 9.2848
785 2 1 5.4041 -0.92457 9.6648
786 2 1 5.4041 -0.54457 9.6648
787 2 1 5.4041 -0.92457 9.6648
788 2 1 5.4041 -0.92457 10.0448
789 2 1 5.4041 -0.92457 10.4248
790 2 1 5.4041 -0.92457 10.8048
791 2 1 5.4041 -1.3046 10.8048
792 2 1 5.4041 -0.92457 10.8048
793 2 1 5.4041 -1.3046 10.8048
794 2 1 5.7841 -1.3046 10.8048
795 2 1 5.7841 -0.92457 10.8048
796 2 1 5.4041 -0.92457 10.8048
797 2 1 5.0241 -0.92457 10.8048
798 2 1 5.0241 -0.92457 10.4248
799 2 1 4.6441 -0.92457 10.4248
800 2 1 4.2641 -0.92457 10.4248
801 2 1 4.2641 -0.92457 10.0448
802 2 1 4.6441 -0.92457 10.0448
803 2 1 5.0241 -0.92457 10.0448
804 2 1 5.4041 -0.92457 10.0448
805 2 1 5.4041 -1.3046 10.0448
806 2 1 5.4041 -1.6846 10.0448
807 2 1 5.4041 -1.3046 10.0448
808 2 1 5.4041 -0.92457 10.0448
809 2 1 5.4041 -0.92457 9.6648
810 2 1 5.4041 -0.92457 9.2848
811 2 1 5.4041 -0.92457 9.6648
812 2 1 5.4041 -0.54457 9.6648
813 2 1 5.4041 -0.54457 10.0448
814 2 1 5.7841 -0.54457 10.0448
815 2 1 6.1641 -0.54457 10.0448
816 2 1 5.7841 -0.54457 10.0448
817 2 1 5.7841 -0.54457 10.4248
818 2 1 5.7841 -0.54457 10.8048
819 2 1 6.1641 -0.54457 10.8048
820 2 1 6.1641 -0.92457 10.8048
821 2 1 6.1641 -0.54457 10.8048
822 2 1 6.1641 -0.54457 10.4248
823 2 1 6.1641 -0.54457 10.8048
824 2 1 5.7841 -0.54457 10.8048
825 2 1 5.7841 -0.54457 11.1848
826 2 1 5.7841 -0.16457 11.1848
827 2 1 6.1641 -0.16457 11.1848
828 2 1 6.1641 -0.16457 10.8048
829 2 1 6.5441 -0.16457 10.8048
830 2 1 6.5441 -0.16457 10.4248
831 2 1 6.5441 -0.16457 10.8048
832 2 1 6.1641 -0.16457 10.8048
833 2 1 6.1641 -0.16457 11.1848
834 2 1 6.5441 -0.16457 11.1848
835 2 1 6.1641 -0.16457 11.1848
836 2 1 5.7841 -0.16457 11.1848
837 2 1 5.7841 0.21543 11.1848
838 2 1 5.7841 0.21543 10.8048
839 2 1 5.7841 0.21543 10.4248
840 2 1 5.4041 0.21543 10.4248
841 2 1 5.4041 0.59543 10.4248
842 2 1 5.4041 0.97543 10.4248
843 2 1 5.4041 0.97543 10.0448
844 2 1 5.4041 0.97543 10.4248
845 2 1 5.0241 0.97543 10.4248
846 2 1 5.0241 1.3554 10.4248
847 2 1 5.0241 1.3554 10.0448
848 2 1 4.6441 1.3554 10.0448
849 2 1 4.2641 1.3554 10.0448
850 2 1 3.8841 1.3554 10.0448
851 2 1 3.8841 1.7354 10.0448
852 2 1 3.8841 1.7354 9.6648
853 2 1 3.8841 1.7354 9.2848
854 2 1 3.8841 1.7354 9.6648
855 2 1 3.8841 1.7354 9.2848
856 2 1 3.8841 1.3554 9.2848
857 2 1 3.8841 1.3554 9.6648
858 2 1 3.8841 1.3554 9.2848
859 2 1 3.5041 1.3554 9.2848
860 2 1 3.1241 1.3554 9.2848
861 2 1 3.5041 1.3554 9.2848
862 2 1 3.8841 1.3554 9.2848
863 2 1 3.8841 1.7354 9.2848
864 2 1 3.8841 1.7354 9.6648
865 2 1 3.8841 1.3554 9.6648
866 2 1 3.8841 0.97543 9.6648
867 2 1 3.8841 0.59543 9.6648
868 2 1 4.2641 0.59543 9.6648
869 2 1 3.8841 0.59543 9.6648
870 2 1 3.8841 0.21543 9.6648
871 2 1 3.5041 0.21543 9.6648
872 2 1 3.8841 0.21543 9.6648
873 2 1 4.2641 0.21543 9.6648
874 2 1 4.6441 0.21543 9.6648
875 2 1 4.6441 -0.16457 9.6648
876 2 1 4.6441 -0.16457 9.2848
877 2 1 4.2641 -0.16457 9.2848
878 2 1 3.8841 -0.16457 9.2848
879 2 1 3.8841 -0.16457 8.9048
880 2 1 3.8841 -0.16457 8.5248
881 2 1 3.8841 -0.16457 8.9048
882 2 1 3.8841 -0.16457 9.2848
883 2 1 3.8841 -0.16457 9.6648
884 2 1 3.8841 -0.16457 9.2848
885 2 1 3.8841 -0.16457 8.9048
886 2 1 3.5041 -0.16457 8.9048
887 2 1 3.1241 -0.16457 8.9048
888 2 1 3.1241 -0.16457 9.2848
889 2 1 3.1241 0.21543 9.2848
890 2 1 3.1241 0.21543 9.6648
891 2 1 3.1241 -0.16457 9.6648
892 2 1 3.1241 -0.16457 9.2848
893 2 1 3.1241 -0.16457 8.9048
894 2 1 3.5041 -0.16457 8.9048
895 2 1 3.8841 -0.16457 8.9048
896 2 1 3.8841 -0.16457 8.5248
897 2 1 3.8841 -0.16457 8.9048
898 2 1 3.8841 -0.16457 8.5248
899 2 1 3.8841 -0.54457 8.5248
900 2 1 4.2641 -0.54457 8.5248
901 2 1 4.2641 -0.16457 8.5248
902 2 1 4.2641 -0.54457 8.5248
903 2 1 4.2641 -0.92457 8.5248
904 2 1 4.6441 -0.92457 8.5248
905 2 1 4.2641 -0.92457 8.5248
906 2 1 4.6441 -0.92457 8.5248
907 2 1 4.2641 -0.92457 8.5248
908 2 1 4.2641 -0.54457 8.5248
909 2 1 4.2641 -0.54457 8.9048
910 2 1 4.2641 -0.16457 8.9048
911 2 1 4.2641 0.21543 8.9048
912 2 1 3.8841 0.21543 8.9048
913 2 1 3.8841 0.21543 9.2848
914 2 1 4.2641 0.21543 9.2848
915 2 1 4.6441 0.21543 9.2848
916 2 1 4.2641 0.21543 9.2848
917 2 1 4.2641 0.21543 9.6648
918 2 1 4.2641 -0.16457 9.6648
919 2 1 4.2641 0.21543 9.6648
920 2 1 4.6441 0.21543 9.6648
921 2 1 5.0241 0.21543 9.6648
922 2 1 4.6441 0.21543 9.6648
923 2 1 4.6441 0.59543 9.6648
924 2 1 4.6441 0.59543 9.2848
925 2 1 4.2641 0.59543 9.2848