LAMMPS data file for polymer system

27000 atoms
26940 bonds

1 atom types
1 bond types

0.0 31.55286053533754 xlo xhi
0.0 31.55286053533754 ylo yhi
0.0 31.55286053533754 zlo zhi

Masses

1 5.65487

Atoms

1 1 1 1.711411 26.734098 27.921037
2 1 1 1.518186 26.871546 27.624099
3 1 1 1.211167 26.720359 27.458927
4 1 1 1.217273 26.535060 27.127224
5 1 1 1.104762 26.315852 26.837933
6 1 1 1.209746 26.066595 26.571007
7 1 1 1.485670 25.805837 26.587480
8 1 1 1.855108 25.806190 26.498514
9 1 1 2.197910 25.953874 26.569765
10 1 1 2.263261 25.897341 26.939810
11 1 1 2.455911 26.129529 27.170838
12 1 1 2.608792 26.038188 27.506523
13 1 1 2.867128 26.026242 27.784947
14 1 1 3.197058 26.094500 27.960695
15 1 1 3.427624 26.348529 27.797268
16 1 1 3.416494 26.535518 27.466645
17 1 1 3.639234 26.664503 27.187093
18 1 1 3.499216 26.759044 26.846715
19 1 1 3.452593 27.086839 26.660231
20 1 1 3.230790 27.191495 26.369972
21 1 1 3.140063 26.884640 26.165012
22 1 1 3.015770 26.680003 25.869927
23 1 1 3.331035 26.577186 25.684356
24 1 1 3.504159 26.287984 25.508885
25 1 1 3.348780 25.972487 25.364945
26 1 1 3.355529 25.613453 25.489241
27 1 1 3.353043 25.241833 25.409917
28 1 1 3.528464 24.996175 25.640741
29 1 1 3.579954 24.642917 25.770965
30 1 1 3.520663 24.267619 25.776967
31 1 1 3.509342 23.971877 26.015312
32 1 1 3.624053 23.627717 25.902198
33 1 1 3.606466 23.284225 25.740632
34 1 1 3.321792 23.308889 25.490127
35 1 1 3.257490 23.281576 25.116604
36 1 1 3.302452 23.455622 24.781811
37 1 1 3.368725 23.508774 24.411429
38 1 1 3.325956 23.821843 24.200339
39 1 1 3.481155 24.167454 24.170917
40 1 1 3.593179 24.273099 24.518321
41 1 1 3.552549 24.021162 24.799883
42 1 1 3.607783 24.215002 25.122024
43 1 1 3.957756 24.344812 25.193213
44 1 1 4.228937 24.572137 25.054706
45 1 1 4.190207 24.854204 24.803035
46 1 1 4.310504 25.180612 24.650109
47 1 1 4.181101 25.446099 24.411004
48 1 1 4.054319 25.554090 24.069442
49 1 1 4.282537 25.820764 23.923833
50 1 1 4.350564 26.192424 23.964343
51 1 1 4.653084 26.259213 23.744295
52 1 1 4.680889 26.126951 23.389142
53 1 1 4.837037 25.783767 23.341789
54 1 1 4.666634 25.462369 23.231943
55 1 1 4.547577 25.311880 22.903951
56 1 1 4.250908 25.382478 22.677228
57 1 1 3.950905 25.165380 22.591984
58 1 1 3.784687 24.840359 22.697499
59 1 1 3.410739 24.907242 22.688017
60 1 1 3.108413 25.125342 22.761712
61 1 1 2.964648 25.206389 22.419421
62 1 1 2.588169 25.243817 22.383882
63 1 1 2.407215 25.063389 22.102633
64 1 1 2.057974 25.154006 21.983386
65 1 1 1.686786 25.176963 21.905332
66 1 1 1.372547 25.285882 22.089153
67 1 1 1.084756 25.527131 22.031052
68 1 1 0.769575 25.636918 21.849372
69 1 1 0.622414 25.345543 21.654837
70 1 1 0.704306 25.271552 21.291218
71 1 1 0.892055 25.127399 20.993947
72 1 1 1.060521 25.134088 20.653396
73 1 1 1.398700 25.307095 20.643223
74 1 1 1.589441 25.307922 20.314563
75 1 1 1.647081 25.320445 19.939169
76 1 1 1.386445 25.564930 19.809956
77 1 1 1.365907 25.758506 19.483603
78 1 1 1.212525 25.574117 19.188858
79 1 1 0.898670 25.733026 19.045181
80 1 1 0.961471 26.007157 18.789626
81 1 1 1.117461 26.343901 18.871301
82 1 1 1.220249 26.580123 19.150646
83 1 1 1.002647 26.865967 19.274512
84 1 1 0.686185 27.042290 19.389238
85 1 1 0.482743 27.327790 19.535870
86 1 1 0.386412 27.695172 19.523575
87 1 1 0.374532 28.059308 19.631574
88 1 1 0.412276 28.436883 19.611259
89 1 1 0.082188 28.574295 19.482573
90 1 1 31.364582 28.831052 19.555534
91 1 1 31.456425 29.194784 19.494999
92 1 1 31.525821 29.552027 19.604368
93 1 1 31.384916 29.831570 19.819778
94 1 1 31.074635 29.997467 19.676237
95 1 1 31.152138 30.065446 19.310488
96 1 1 31.152391 29.898332 18.969207
97 1 1 31.354449 29.727630 18.696383
98 1 1 0.018553 29.874037 18.420899
99 1 1 0.264042 29.655550 18.230115
100 1 1 0.447823 29.540094 17.918194
101 1 1 0.261869 29.248000 17.761661
102 1 1 0.186417 29.182392 17.395052
103 1 1 31.403512 29.036114 17.293738
104 1 1 31.296893 29.304582 17.046842
105 1 1 31.453369 29.629753 16.927767
106 1 1 0.139620 29.384462 16.763272
107 1 1 0.343905 29.666935 16.612023
108 1 1 0.163694 29.914787 16.387316
109 1 1 31.539478 29.606293 16.253617
110 1 1 31.192766 29.721979 16.357580
111 1 1 30.873586 29.683915 16.560249
112 1 1 30.637814 29.633768 16.854012
113 1 1 30.430779 29.810562 17.119117
114 1 1 30.121850 30.002984 17.009862
115 1 1 30.119661 30.155807 16.661953
116 1 1 30.000164 30.446093 16.447817
117 1 1 29.890338 30.461500 16.084360
118 1 1 30.080932 30.504803 15.758479
119 1 1 30.112174 30.561208 15.383989
120 1 1 30.362533 30.589875 15.099562
121 1 1 30.737875 30.624759 15.051588
122 1 1 31.102805 30.730569 15.046102
123 1 1 31.443089 30.684050 14.883489
124 1 1 0.106434 30.915852 15.093068
125 1 1 0.063066 31.244873 15.278175
126 1 1 31.394534 31.523342 15.144608
127 1 1 31.406699 31.215301 15.366785
128 1 1 31.220554 31.036291 15.645542
129 1 1 31.386989 30.785473 15.877469
130 1 1 31.458719 30.458716 15.697233
131 1 1 31.155802 30.284085 15.548422
132 1 1 30.901121 30.143828 15.793096
133 1 1 30.675507 30.286395 16.063601
134 1 1 30.705984 30.553801 16.331864
135 1 1 31.057924 30.681812 16.396295
136 1 1 31.266271 30.996142 16.443070
137 1 1 0.057631 30.850397 16.374728
138 1 1 0.308452 30.958658 16.110591
139 1 1 0.575868 31.181305 15.957893
140 1 1 0.890490 31.098132 15.761691
141 1 1 1.188489 30.972243 15.562321
142 1 1 1.533456 31.127470 15.526237
143 1 1 1.672058 31.200966 15.180133
144 1 1 1.573740 30.969626 14.895149
145 1 1 1.430926 30.617717 14.882341
146 1 1 1.575191 30.272889 14.950758
147 1 1 1.542103 29.907855 15.051033
148 1 1 1.781468 29.713571 15.273199
149 1 1 1.851924 29.629348 15.636988
150 1 1 2.192215 29.568317 15.794713
151 1 1 2.356619 29.883461 15.929083
152 1 1 2.388355 30.254721 15.854524
153 1 1 2.660068 30.375571 15.617949
154 1 1 2.955172 30.140147 15.661411
155 1 1 3.329670 30.081634 15.634437
156 1 1 3.598532 30.076517 15.902927
157 1 1 3.756068 29.975419 16.233625
158 1 1 3.475686 29.962382 16.489782
159 1 1 3.487795 29.976043 16.869343
160 1 1 3.586517 29.975053 17.236294
161 1 1 3.908585 29.855478 17.398693
162 1 1 3.900164 29.905676 17.775269
163 1 1 3.844630 30.013608 18.135361
164 1 1 3.552537 29.805787 18.261427
165 1 1 3.226405 29.999824 18.241737
166 1 1 2.993872 30.274087 18.118822
167 1 1 2.728901 30.321852 17.850665
168 1 1 2.689134 30.239988 17.481724
169 1 1 2.501335 29.923905 17.385690
170 1 1 2.525590 29.576148 17.234440
171 1 1 2.653109 29.252468 17.387314
172 1 1 2.845800 28.941268 17.285213
173 1 1 3.187848 29.045659 17.156739
174 1 1 3.550246 29.025638 17.044191
175 1 1 3.729069 28.862211 16.751422
176 1 1 4.076712 28.735557 16.664801
177 1 1 4.407813 28.552009 16.697703
178 1 1 4.507571 28.281796 16.945561
179 1 1 4.541418 27.993134 17.190364
180 1 1 4.613043 27.668646 17.006033
181 1 1 4.695298 27.381743 17.241237
182 1 1 4.852958 27.174118 17.517706
183 1 1 4.788393 26.800947 17.548925
184 1 1 4.916519 26.539321 17.792924
185 1 1 5.293730 26.526236 17.748869
186 1 1 5.492674 26.216701 17.843785
187 1 1 5.731083 26.075170 18.103651
188 1 1 5.738467 25.858501 18.415741
189 1 1 6.025197 25.766618 18.647568
190 1 1 6.103666 25.587049 18.973141
191 1 1 5.992434 25.671871 19.326458
192 1 1 6.023171 26.025392 19.462394
193 1 1 5.768289 26.242152 19.282255
194 1 1 5.532694 26.058760 19.047176
195 1 1 5.265837 26.305905 18.937146
196 1 1 5.265284 26.685376 18.957188
197 1 1 5.275811 27.065165 18.964245
198 1 1 5.363983 27.323909 19.228210
199 1 1 5.709493 27.269960 19.376912
200 1 1 6.001804 27.066785 19.243967
201 1 1 6.133584 26.790306 19.019038
202 1 1 6.048941 26.544801 18.741616
203 1 1 5.759013 26.628579 18.510699
204 1 1 5.814630 26.737882 18.151033
205 1 1 5.775978 27.053581 17.943090
206 1 1 5.435446 27.213746 17.995864
207 1 1 5.199200 27.511372 17.993360
208 1 1 5.251649 27.703236 17.669574
209 1 1 5.078732 28.040258 17.639316
210 1 1 5.042425 28.418413 17.630320
211 1 1 5.274832 28.708287 17.550571
212 1 1 5.565145 28.935119 17.457479
213 1 1 5.834692 29.181293 17.563035
214 1 1 5.990817 29.527440 17.548628
215 1 1 6.272616 29.648753 17.772843
216 1 1 6.630774 29.707891 17.885206
217 1 1 6.758039 29.829810 18.221866
218 1 1 6.759186 29.851375 18.601252
219 1 1 6.990871 29.607236 18.777656
220 1 1 7.252735 29.581790 19.051844
221 1 1 7.471334 29.509628 19.354181
222 1 1 7.347595 29.744708 19.625891
223 1 1 7.086099 29.999029 19.732384
224 1 1 6.756880 30.008605 19.921917
225 1 1 6.548471 30.295029 19.784340
226 1 1 6.355722 30.486290 20.050172
227 1 1 6.249180 30.380902 20.399374
228 1 1 6.227668 30.001926 20.381639
229 1 1 5.868602 29.898965 20.451430
230 1 1 5.657451 30.036124 20.736039
231 1 1 5.358809 30.201322 20.568939
232 1 1 5.159144 30.436715 20.347300
233 1 1 4.794080 30.368089 20.267182
234 1 1 4.547963 30.195311 20.034858
235 1 1 4.614844 29.839881 19.918256
236 1 1 4.488757 29.600537 20.185120
237 1 1 4.167402 29.397852 20.192161
238 1 1 3.929231 29.253036 20.450430
239 1 1 3.804574 29.383711 20.784772
240 1 1 3.819846 29.174980 21.101945
241 1 1 3.486147 29.160337 21.283136
242 1 1 3.223306 28.886613 21.302884
243 1 1 2.879975 29.004839 21.414898
244 1 1 2.669369 28.754510 21.608239
245 1 1 2.400054 28.648026 21.362209
246 1 1 2.402649 28.274468 21.292585
247 1 1 2.343780 28.097750 20.961367
248 1 1 2.129295 27.820465 20.814705
249 1 1 1.829482 27.862623 20.585065
250 1 1 1.691101 27.527682 20.470763
251 1 1 1.667056 27.432699 20.103612
252 1 1 1.449878 27.665403 19.896049
253 1 1 1.471668 28.038085 19.966995
254 1 1 1.264459 28.224002 19.708346
255 1 1 0.988717 28.280676 19.453092
256 1 1 0.971746 28.520247 19.158613
257 1 1 1.152725 28.805228 18.984163
258 1 1 1.311805 29.125384 18.855348
259 1 1 1.136265 29.320240 18.580364
260 1 1 0.846284 29.559403 18.524572
261 1 1 0.644938 29.608677 18.843056
262 1 1 0.510274 29.939166 18.973604
263 1 1 0.811231 30.120475 19.118351
264 1 1 1.109109 30.343379 19.195697
265 1 1 1.423666 30.333228 18.982740
266 1 1 1.567256 30.198301 18.657814
267 1 1 1.760060 29.884770 18.563344
268 1 1 1.969636 29.575137 18.631207
269 1 1 2.158085 29.285294 18.788935
270 1 1 2.028096 29.217430 19.139502
271 1 1 2.060959 29.543218 19.332329
272 1 1 1.732265 29.679417 19.465783
273 1 1 1.695160 29.783367 19.829401
274 1 1 1.818132 30.045502 20.075497
275 1 1 2.155946 30.194939 19.986332
276 1 1 2.283852 30.056498 19.656371
277 1 1 2.560187 29.816090 19.555164
278 1 1 2.933049 29.873219 19.601101
279 1 1 3.150088 29.871752 19.289185
280 1 1 3.446557 30.017201 19.101166
281 1 1 3.390462 30.317999 18.875836
282 1 1 3.647071 30.573840 18.761392
283 1 1 3.950535 30.626600 18.538848
284 1 1 4.282298 30.583065 18.718954
285 1 1 4.600336 30.641122 18.918657
286 1 1 4.900819 30.427893 18.825689
287 1 1 4.973187 30.059580 18.884922
288 1 1 4.843273 29.870247 19.187702
289 1 1 5.012335 29.623649 19.422238
290 1 1 4.948821 29.249043 19.428315
291 1 1 4.815511 29.038577 19.141379
292 1 1 4.483963 28.953670 18.976252
293 1 1 4.260112 28.735762 19.192601
294 1 1 4.247720 28.396776 19.363876
295 1 1 4.370286 28.072059 19.209163
296 1 1 4.199558 28.025297 18.872912
297 1 1 4.271973 27.670696 18.757095
298 1 1 4.012659 27.526662 18.519585
299 1 1 3.825138 27.829332 18.386821
300 1 1 3.512065 27.883190 18.595351
301 1 1 3.369256 27.913028 18.946229
302 1 1 3.114092 27.656644 19.062670
303 1 1 2.782558 27.784835 19.197029
304 1 1 2.525886 27.896092 19.454209
305 1 1 2.495199 28.272369 19.410921
306 1 1 2.299390 28.486965 19.165957
307 1 1 2.218004 28.366406 18.814899
308 1 1 2.031857 28.321767 18.486636
309 1 1 2.236685 28.398738 18.175958
310 1 1 2.146662 28.256874 17.835120
311 1 1 2.126498 27.883924 17.765107
312 1 1 2.254796 27.590528 17.560514
313 1 1 2.343847 27.249880 17.703444
314 1 1 2.248884 27.032555 18.000347
315 1 1 2.550381 26.825982 18.104401
316 1 1 2.556143 26.591685 18.403519
317 1 1 2.908477 26.549994 18.539617
318 1 1 3.240322 26.444061 18.691462
319 1 1 3.594604 26.527811 18.582513
320 1 1 3.902616 26.620912 18.380371
321 1 1 3.875207 26.842018 18.072539
322 1 1 3.636534 26.852975 17.777048
323 1 1 3.714797 26.549320 17.562412
324 1 1 3.828472 26.186722 17.561598
325 1 1 4.203391 26.126373 17.575496
326 1 1 4.470169 26.080817 17.842244
327 1 1 4.770552 25.859897 17.769003
328 1 1 4.705570 25.570682 17.531238
329 1 1 4.523279 25.269166 17.388908
330 1 1 4.290369 25.146332 17.114929
331 1 1 4.040051 25.404283 16.991631
332 1 1 3.839918 25.700581 16.862967
333 1 1 4.011857 26.001046 16.706259
334 1 1 4.258431 26.280845 16.633362
335 1 1 4.527426 26.449963 16.424937
336 1 1 4.614037 26.628456 16.100839
337 1 1 4.395310 26.704560 15.799564
338 1 1 4.384919 26.646267 15.424206
339 1 1 4.320802 26.849797 15.109778
340 1 1 4.207043 26.716082 14.772763
341 1 1 4.123396 26.626306 14.413120
342 1 1 4.281037 26.807212 14.118463
343 1 1 4.633677 26.790832 13.977833
344 1 1 4.891336 26.923128 14.223820
345 1 1 5.098948 26.972142 14.538295
346 1 1 5.098425 26.929723 14.915920
347 1 1 5.308478 26.801290 15.205372
348 1 1 5.498346 26.472124 15.205397
349 1 1 5.610756 26.213313 14.950876
350 1 1 5.730064 25.904699 15.137753
351 1 1 5.866918 25.564936 15.036597
352 1 1 5.606216 25.300691 15.117891
353 1 1 5.362190 25.141423 14.873995
354 1 1 5.277789 24.781982 14.963877
355 1 1 5.315268 24.439128 15.123396
356 1 1 5.030375 24.219853 15.246497
357 1 1 4.970564 23.939656 14.996872
358 1 1 4.926104 23.591899 15.143461
359 1 1 4.978616 23.259864 14.966274
360 1 1 5.216778 23.321475 14.676648
361 1 1 5.199695 23.365874 14.299638
362 1 1 5.314031 23.628425 14.049850
363 1 1 5.501376 23.958111 14.025168
364 1 1 5.748200 23.997289 13.738911
365 1 1 5.670155 24.030124 13.368464
366 1 1 5.806999 24.296285 13.134301
367 1 1 6.021027 24.605280 13.190101
368 1 1 6.138223 24.966498 13.203760
369 1 1 6.125286 25.344914 13.171599
370 1 1 6.162084 25.671564 13.362243
371 1 1 6.127395 25.769192 13.727846
372 1 1 6.310030 25.987999 13.979178
373 1 1 6.632042 26.112180 14.138200
374 1 1 6.688384 26.071780 14.511822
375 1 1 6.371975 26.067500 14.722220
376 1 1 6.048572 26.019257 14.528612
377 1 1 5.863070 25.707105 14.416586
378 1 1 5.771713 25.405010 14.204943
379 1 1 5.710007 25.234738 13.870878
380 1 1 5.879327 24.896446 13.834971
381 1 1 6.025707 24.545846 13.842202
382 1 1 6.295498 24.315534 13.705934
383 1 1 6.505954 24.215496 14.006102
384 1 1 6.876082 24.196281 14.089983
385 1 1 6.994772 23.906991 14.305908
386 1 1 7.265105 24.027736 14.544111
387 1 1 7.631847 24.126805 14.553379
388 1 1 7.792166 24.231163 14.881718
389 1 1 7.742206 24.331519 15.244806
390 1 1 7.979868 24.474824 15.504383
391 1 1 8.329184 24.393630 15.630025
392 1 1 8.527612 24.186564 15.879324
393 1 1 8.490843 23.877469 16.097289
394 1 1 8.418317 23.513135 16.017285
395 1 1 8.080746 23.467327 15.848919
396 1 1 7.832776 23.414907 16.132050
397 1 1 7.536207 23.351719 16.361078
398 1 1 7.358322 23.039104 16.483670
399 1 1 7.054151 23.001461 16.708310
400 1 1 6.776473 22.784766 16.850921
401 1 1 6.418446 22.669359 16.904754
402 1 1 6.142657 22.929852 16.926760
403 1 1 5.846866 23.087937 17.105413
404 1 1 5.534023 23.042005 16.894654
405 1 1 5.468616 23.214577 16.562478
406 1 1 5.390425 23.575068 16.653759
407 1 1 5.309333 23.936214 16.739766
408 1 1 5.113713 24.047048 17.046114
409 1 1 5.092885 23.752287 17.285032
410 1 1 5.057640 23.374759 17.259921
411 1 1 4.801274 23.261894 17.516705
412 1 1 4.501910 23.106460 17.341716
413 1 1 4.212747 22.876456 17.430502
414 1 1 4.077749 22.594432 17.646460
415 1 1 4.357138 22.363608 17.760749
416 1 1 4.442096 22.074291 17.992001
417 1 1 4.636296 21.790161 18.153112
418 1 1 5.012939 21.751710 18.120525
419 1 1 5.357879 21.626605 18.021707
420 1 1 5.492289 21.373098 18.270843
421 1 1 5.598783 21.059831 18.457718
422 1 1 5.415743 20.764391 18.304057
423 1 1 5.176750 20.841108 18.018756
424 1 1 5.222512 20.608313 17.721919
425 1 1 5.167752 20.232503 17.734889
426 1 1 4.849110 20.030303 17.690359
427 1 1 4.618185 19.765119 17.834409
428 1 1 4.310017 19.958504 17.944113
429 1 1 4.192913 20.310296 17.860872
430 1 1 4.277264 20.671570 17.778614
431 1 1 4.421988 21.001073 17.656620
432 1 1 4.459584 21.375007 17.600409
433 1 1 4.163126 21.518903 17.411182
434 1 1 3.788784 21.558290 17.463301
435 1 1 3.531992 21.741143 17.675486
436 1 1 3.439274 22.075359 17.520235
437 1 1 3.095990 22.076908 17.357282
438 1 1 2.958868 22.138026 17.008195
439 1 1 2.943379 22.515944 16.971614
440 1 1 2.847735 22.879938 16.919073
441 1 1 2.724443 23.235045 16.863413
442 1 1 2.976842 23.513028 16.921892
443 1 1 3.316369 23.342796 16.933838
444 1 1 3.648705 23.174860 17.009665
445 1 1 3.827585 22.855951 16.906228
446 1 1 3.829416 22.742019 16.543714
447 1 1 3.859469 22.975469 16.245388
448 1 1 4.102980 23.032713 15.959336
449 1 1 4.411000 23.251302 16.001084
450 1 1 4.628484 23.311748 15.695393
451 1 1 26.410331 8.239394 13.331815
452 1 1 26.563854 8.271208 12.985667
453 1 1 26.848017 8.055088 12.855498
454 1 1 27.021195 8.021282 12.518947
455 1 1 27.317879 7.995260 12.282936
456 1 1 27.672883 8.107482 12.206917
457 1 1 27.869182 8.422387 12.125056
458 1 1 27.742816 8.757357 11.997673
459 1 1 27.498822 8.967962 12.198950
460 1 1 27.152309 8.942125 12.352772
461 1 1 27.119196 9.182275 12.645401
462 1 1 26.911667 9.472853 12.775387
463 1 1 27.151012 9.747768 12.882793
464 1 1 27.331090 9.901881 12.585773
465 1 1 27.485661 10.200139 12.408149
466 1 1 27.853703 10.243353 12.492277
467 1 1 28.114600 10.014788 12.647489
468 1 1 28.136460 10.075921 13.021902
469 1 1 28.174028 10.392167 13.229211
470 1 1 28.089234 10.692254 13.446370
471 1 1 28.241593 10.790244 13.780413
472 1 1 28.580577 10.933522 13.875078
473 1 1 28.894597 10.722594 13.911146
474 1 1 29.236710 10.586283 14.004834
475 1 1 29.493427 10.453996 14.251809
476 1 1 29.752045 10.639388 14.459527
477 1 1 30.086082 10.722564 14.620463
478 1 1 30.458971 10.765661 14.679594
479 1 1 30.767968 10.950387 14.801236
480 1 1 30.856966 11.209765 15.064300
481 1 1 31.147633 11.079334 15.271424
482 1 1 31.075114 10.895506 15.595998
483 1 1 30.940660 10.871234 15.950587
484 1 1 30.854463 10.751926 16.300923
485 1 1 30.979562 10.460178 16.509810
486 1 1 31.206747 10.597285 16.781819
487 1 1 31.063620 10.486338 17.115893
488 1 1 30.707281 10.444690 17.241144
489 1 1 30.498609 10.209380 17.454416
490 1 1 30.257309 9.975178 17.631402
491 1 1 30.018214 9.742312 17.813080
492 1 1 29.923938 9.606293 18.155149
493 1 1 29.791546 9.798615 18.454956
494 1 1 29.881146 9.746516 18.820548
495 1 1 29.770226 9.944597 19.125279
496 1 1 29.892358 10.300094 19.181009
497 1 1 30.228652 10.455614 19.265389
498 1 1 30.545403 10.585507 19.430304
499 1 1 30.832131 10.756143 19.248454
500 1 1 31.128444 10.919363 19.421537
501 1 1 31.139477 11.056171 19.775884
502 1 1 30.847044 11.222522 19.952549
503 1 1 30.737118 11.216849 20.316258
504 1 1 30.741751 10.853782 20.428333
505 1 1 31.092205 10.707417 20.415720
506 1 1 31.132916 10.341884 20.511262
507 1 1 31.322145 10.013692 20.540978
508 1 1 31.255750 9.826986 20.865220
509 1 1 31.056630 9.519060 20.964883
510 1 1 31.276108 9.208905 20.959125
511 1 1 31.411138 8.872364 21.072735
512 1 1 0.013453 9.124799 20.834833
513 1 1 0.217798 8.805940 20.803660
514 1 1 0.252657 8.510615 21.040235
515 1 1 0.596711 8.350092 21.024134
516 1 1 0.831131 8.452690 20.743206
517 1 1 1.002660 8.221718 20.494953
518 1 1 1.325946 8.063378 20.616670
519 1 1 1.516946 8.324494 20.816013
520 1 1 1.654064 8.606711 21.030377
521 1 1 1.924943 8.795603 20.842377
522 1 1 2.291739 8.696315 20.840695
523 1 1 2.573301 8.800363 21.073711
524 1 1 2.944775 8.868661 21.031962
525 1 1 3.135069 8.622842 20.813419
526 1 1 3.437082 8.642796 20.583658
527 1 1 3.616756 8.341242 20.438115
528 1 1 3.588177 7.992198 20.585599
529 1 1 3.551987 7.940638 20.960341
530 1 1 3.237892 8.053179 21.142218
531 1 1 2.975592 8.014640 21.414456
532 1 1 2.913318 8.248920 21.707090
533 1 1 2.540639 8.313173 21.744259
534 1 1 2.403342 8.529753 22.024692
535 1 1 2.652507 8.734954 22.225214
536 1 1 2.806536 8.644671 22.560660
537 1 1 3.105662 8.624776 22.794172
538 1 1 3.483400 8.664906 22.804372
539 1 1 3.633332 8.751759 22.466175
540 1 1 3.989440 8.636392 22.400769
541 1 1 4.215881 8.940990 22.419314
542 1 1 4.129607 9.142213 22.108724
543 1 1 3.914990 9.455169 22.128685
544 1 1 3.770741 9.732183 21.912225
545 1 1 3.894990 10.062245 21.770726
546 1 1 4.104941 10.275046 22.005324
547 1 1 4.395015 10.515210 22.056099
548 1 1 4.355069 10.889216 22.002024
549 1 1 4.176770 11.084384 21.729043
550 1 1 4.238870 11.402117 21.530072
551 1 1 4.258904 11.710252 21.308595
552 1 1 4.490071 12.005675 21.369314
553 1 1 4.605123 12.364590 21.320907
554 1 1 4.582500 12.743881 21.315787
555 1 1 4.479952 13.077621 21.165781
556 1 1 4.471865 13.366141 21.412946
557 1 1 4.217438 13.571834 21.606227
558 1 1 4.244804 13.944448 21.675579
559 1 1 4.536834 14.161052 21.565123
560 1 1 4.850712 14.227694 21.361556
561 1 1 4.855844 14.230303 20.981600
562 1 1 4.696683 14.076284 20.672819
563 1 1 4.513724 13.986182 20.352182
564 1 1 4.213651 13.943964 20.122892
565 1 1 4.025551 13.664286 19.947396
566 1 1 4.057008 13.419371 19.658559
567 1 1 4.359502 13.201053 19.730911
568 1 1 4.383705 12.896317 19.505190
569 1 1 4.473172 12.716480 19.182615
570 1 1 4.453864 12.477651 18.887678
571 1 1 4.797502 12.428802 18.732994
572 1 1 4.735049 12.242363 18.407817
573 1 1 4.963442 11.972633 18.268236
574 1 1 5.212157 11.686446 18.293487
575 1 1 5.209536 11.315332 18.211833
576 1 1 5.369248 11.030267 18.405819
577 1 1 5.595479 10.856378 18.656780
578 1 1 5.487859 10.576124 18.889753
579 1 1 5.175990 10.383780 18.990455
580 1 1 5.007440 10.487002 19.315011
581 1 1 5.090409 10.549247 19.680581
582 1 1 5.260006 10.324126 19.935449
583 1 1 5.525150 10.269164 20.202053
584 1 1 5.852261 10.183314 20.028766
585 1 1 5.817209 10.279052 19.662698
586 1 1 6.105293 10.296844 19.415532
587 1 1 6.337179 10.572850 19.535738
588 1 1 6.520394 10.816397 19.762712
589 1 1 6.474303 11.193349 19.749198
590 1 1 6.629790 11.501630 19.590494
591 1 1 6.568057 11.552898 19.219064
592 1 1 6.301737 11.820873 19.178284
593 1 1 5.963207 11.884855 19.017962
594 1 1 5.698932 11.823276 18.751942
595 1 1 5.386464 11.656452 18.889543
596 1 1 5.021569 11.622156 18.989919
597 1 1 4.700398 11.755937 19.142732
598 1 1 4.342352 11.882432 19.156934
599 1 1 4.072646 11.684236 18.976998
600 1 1 3.774026 11.896511 18.876172
601 1 1 3.630252 12.247477 18.899663
602 1 1 3.688738 12.547907 19.124877
603 1 1 3.822302 12.675775 19.456856
604 1 1 3.547035 12.609803 19.710383
605 1 1 3.492115 12.745623 20.061006
606 1 1 3.648006 13.055117 20.216927
607 1 1 3.636902 13.404644 20.365615
608 1 1 3.464501 13.701523 20.528526
609 1 1 3.345635 13.976598 20.294850
610 1 1 3.268188 14.318587 20.148408
611 1 1 3.609145 14.478754 20.098457
612 1 1 3.927771 14.561337 19.908569
613 1 1 3.923509 14.555305 19.528641
614 1 1 3.849505 14.798762 19.246414
615 1 1 3.601387 14.668469 18.989780
616 1 1 3.398949 14.423349 18.781609
617 1 1 3.112570 14.230965 18.940906
618 1 1 2.781233 14.356166 18.803280
619 1 1 2.638341 14.651652 18.611786
620 1 1 2.642712 14.918748 18.341526
621 1 1 2.998087 15.016582 18.249129
622 1 1 3.131570 15.345821 18.383978
623 1 1 3.420470 15.504569 18.573016
624 1 1 3.637936 15.814568 18.541253
625 1 1 3.777950 15.957886 18.218366
626 1 1 3.770802 15.950404 17.838507
627 1 1 3.426683 15.958508 17.677521
628 1 1 3.369303 16.137970 17.347520
629 1 1 3.299890 16.478547 17.193933
630 1 1 3.187404 16.640510 16.869102
631 1 1 2.881564 16.667419 16.645188
632 1 1 2.825302 16.706250 16.271387
633 1 1 2.718684 16.719022 15.906875
634 1 1 2.530647 16.560070 15.617434
635 1 1 2.154191 16.605504 15.642269
636 1 1 2.059648 16.561117 16.007634
637 1 1 1.790345 16.375704 16.201278
638 1 1 1.679722 16.029452 16.312058
639 1 1 1.721693 15.715905 16.522597
640 1 1 1.394646 15.522419 16.524451
641 1 1 1.191330 15.553853 16.843943
642 1 1 1.135995 15.624068 17.213277
643 1 1 1.265572 15.813910 17.515882
644 1 1 1.442517 16.149397 17.492678
645 1 1 1.822275 16.138979 17.484013
646 1 1 2.105590 16.198618 17.237891
647 1 1 2.463731 16.118296 17.139486
648 1 1 2.765885 15.972191 16.961283
649 1 1 2.952802 15.777663 16.693662
650 1 1 3.247538 15.548620 16.764865
651 1 1 3.622625 15.542222 16.704290
652 1 1 3.873925 15.289013 16.573398
653 1 1 4.003560 15.324655 16.217976
654 1 1 4.130830 15.150327 15.905227
655 1 1 4.440607 14.950224 15.813591
656 1 1 4.725964 14.841584 15.587386
657 1 1 5.059609 14.799099 15.764238
658 1 1 5.433575 14.749430 15.809873
659 1 1 5.791227 14.739284 15.681882
660 1 1 5.799245 14.754590 15.302275
661 1 1 6.162215 14.726873 15.193258
662 1 1 6.430781 14.798986 14.934276
663 1 1 6.411376 15.155867 14.805205
664 1 1 6.477569 15.449645 15.036966
665 1 1 6.715737 15.693628 14.869192
666 1 1 6.767497 16.017217 15.061574
667 1 1 6.674954 16.004832 15.429925
668 1 1 6.519011 15.842920 15.736301
669 1 1 6.644272 15.660578 16.045268
670 1 1 6.944589 15.432064 16.000654
671 1 1 7.226228 15.598208 15.807067
672 1 1 7.234980 15.652468 15.431063
673 1 1 7.439258 15.903727 15.232217
674 1 1 7.361693 16.006229 14.874618
675 1 1 7.570356 16.309262 14.779592
676 1 1 7.637030 16.524935 15.085272
677 1 1 7.903238 16.694611 15.296798
678 1 1 8.274230 16.699625 15.214702
679 1 1 8.603018 16.531650 15.304610
680 1 1 8.855504 16.303830 15.135056
681 1 1 8.980097 16.338423 14.777733
682 1 1 8.697431 16.288150 14.528790
683 1 1 8.432053 16.052848 14.665200
684 1 1 8.273567 15.995203 15.005728
685 1 1 8.327407 15.745334 15.286916
686 1 1 8.356447 15.372869 15.217448
687 1 1 8.116941 15.187380 14.988034
688 1 1 8.113240 15.249254 14.613124
689 1 1 8.034606 15.070592 14.287092
690 1 1 8.105387 14.892181 13.959130
691 1 1 7.879625 14.762455 13.682358
692 1 1 7.734045 14.649639 13.349974
693 1 1 7.412069 14.754804 13.177720
694 1 1 7.338379 15.030928 12.927270
695 1 1 7.358379 15.387135 13.058101
696 1 1 7.225553 15.411997 13.413262
697 1 1 7.152900 15.600945 13.734852
698 1 1 7.032259 15.533158 14.088760
699 1 1 7.117182 15.754550 14.385700
700 1 1 6.922180 16.079090 14.353332
701 1 1 6.846974 16.331120 14.079060
702 1 1 6.879919 16.507819 13.744259
703 1 1 6.725304 16.713089 13.464333
704 1 1 6.626310 16.578852 13.122895
705 1 1 6.647586 16.204187 13.063115
706 1 1 6.424419 15.936605 12.911471
707 1 1 6.332347 15.958604 12.543451
708 1 1 5.972538 15.926666 12.425478
709 1 1 5.642791 15.743431 12.471216
710 1 1 5.267588 15.730724 12.530049
711 1 1 5.162692 15.389400 12.400068
712 1 1 5.114712 15.034110 12.274106
713 1 1 5.027941 14.806012 11.982828
714 1 1 5.082309 14.890859 11.616433
715 1 1 5.067680 15.179647 11.369881
716 1 1 4.959050 15.479729 11.163605
717 1 1 4.949921 15.775095 11.402511
718 1 1 5.073863 15.849783 11.753880
719 1 1 5.402318 15.693899 11.864411
720 1 1 5.651401 15.524526 11.632742
721 1 1 6.017832 15.534163 11.532563
722 1 1 6.034728 15.632673 11.165943
723 1 1 6.081876 15.477211 10.822419
724 1 1 6.218008 15.243648 10.555367
725 1 1 6.533283 15.041702 10.490415
726 1 1 6.832165 14.865624 10.335281
727 1 1 6.861082 14.799914 9.962124
728 1 1 6.681876 14.875398 9.635647
729 1 1 6.429879 14.622355 9.505777
730 1 1 6.104311 14.428009 9.530981
731 1 1 5.949182 14.174751 9.768037
732 1 1 5.716979 14.145624 10.067425
733 1 1 5.653263 13.950375 10.387141
734 1 1 5.489148 14.085258 10.702217
735 1 1 5.301791 14.258939 10.983522
736 1 1 5.108390 14.562029 11.106536
737 1 1 4.733406 14.623136 11.099289
738 1 1 4.497444 14.550735 10.810360
739 1 1 4.139135 14.660529 10.873285
740 1 1 3.958819 14.668035 10.538875
741 1 1 4.042094 14.362076 10.329461
742 1 1 3.898942 14.049545 10.167500
743 1 1 4.018179 13.749040 9.967802
744 1 1 4.317731 13.789433 9.737504
745 1 1 4.392832 13.878471 9.375797
746 1 1 4.434374 13.811330 9.004090
747 1 1 4.337479 13.997847 8.687510
748 1 1 4.336569 13.926909 8.314192
749 1 1 4.619332 13.678637 8.261216
750 1 1 4.627364 13.397365 8.516602
751 1 1 4.989232 13.284887 8.544893
752 1 1 5.329932 13.453155 8.547862
753 1 1 5.652291 13.645560 8.488997
754 1 1 5.822449 13.583861 8.154872
755 1 1 6.094894 13.600348 7.890482
756 1 1 6.352713 13.838260 7.744443
757 1 1 6.725868 13.798393 7.684727
758 1 1 7.042047 13.595041 7.740211
759 1 1 7.389581 13.694839 7.623331
760 1 1 7.729461 13.743754 7.460579
761 1 1 7.992510 13.727138 7.734311
762 1 1 8.269825 13.514222 7.883185
763 1 1 8.334857 13.411055 8.243084
764 1 1 8.576228 13.262475 8.496193
765 1 1 8.929336 13.206141 8.624806
766 1 1 9.097078 13.544659 8.665645
767 1 1 8.971251 13.741282 8.965490
768 1 1 8.867647 13.533359 9.266212
769 1 1 8.497443 13.604585 9.313918
770 1 1 8.373818 13.770396 9.632702
771 1 1 8.484801 14.091408 9.803096
772 1 1 8.365333 14.069498 10.163162
773 1 1 8.297912 14.222315 10.504485
774 1 1 8.308703 14.602150 10.507469
775 1 1 8.607803 14.744400 10.321179
776 1 1 8.911831 14.735070 10.093408
777 1 1 9.164167 14.493801 9.943355
778 1 1 9.393579 14.196126 9.887148
779 1 1 9.305729 13.877464 9.699698
780 1 1 9.446570 13.655812 9.425045
781 1 1 9.778405 13.470881 9.434301
782 1 1 9.896092 13.302393 9.114674
783 1 1 10.274461 13.269799 9.127862
784 1 1 10.438977 13.363535 8.798396
785 1 1 10.595874 13.042632 8.668765
786 1 1 10.432066 12.699975 8.681129
787 1 1 10.673427 12.423858 8.581609
788 1 1 10.983093 12.313299 8.391125
789 1 1 11.259629 12.088671 8.258951
790 1 1 11.433431 11.866472 8.513550
791 1 1 11.736199 12.037754 8.666499
792 1 1 11.795149 12.049397 9.041718
793 1 1 11.566895 12.225475 9.289298
794 1 1 11.504612 12.565465 9.447185
795 1 1 11.387182 12.746512 9.759966
796 1 1 11.272974 12.997212 10.021702
797 1 1 11.079618 13.202134 10.276693
798 1 1 10.878599 13.219708 10.598691
799 1 1 10.535874 13.313253 10.733556
800 1 1 10.171317 13.419961 10.722979
801 1 1 10.006847 13.322492 10.394574
802 1 1 9.675478 13.388334 10.220623
803 1 1 9.461894 13.207797 9.963352
804 1 1 9.402922 12.843647 10.054548
805 1 1 9.277015 12.494706 9.972161
806 1 1 9.334721 12.134786 9.864792
807 1 1 9.605425 12.030628 9.619292
808 1 1 9.793015 12.169307 9.319328