LAMMPS data file for polymer system

27000 atoms
26940 bonds

1 atom types
1 bond types

0.0 31.55286053533754 xlo xhi
0.0 31.55286053533754 ylo yhi
0.0 31.55286053533754 zlo zhi

Masses

1 5.65487

Atoms

1 1 1 28.602205 9.915497 22.637592
2 1 1 28.391905 10.198625 22.496126
3 1 1 28.086649 10.333642 22.677755
4 1 1 27.810161 10.590287 22.632064
5 1 1 27.500400 10.794849 22.713321
6 1 1 27.273370 10.800494 23.017994
7 1 1 27.184302 10.563531 23.301393
8 1 1 26.963508 10.555581 23.610564
9 1 1 26.660567 10.783190 23.639212
10 1 1 26.670728 11.081868 23.404503
11 1 1 26.766202 11.146373 23.042393
12 1 1 26.668419 10.831274 22.853843
13 1 1 26.532122 10.643144 22.553127
14 1 1 26.578585 10.384821 22.278335
15 1 1 26.338669 10.148205 22.102684
16 1 1 26.000258 10.207602 22.265010
17 1 1 26.009757 10.033972 22.602889
18 1 1 25.697914 9.877978 22.753952
19 1 1 25.621757 9.927769 23.122897
20 1 1 25.598501 9.716178 23.437680
21 1 1 25.805396 9.741179 23.755437
22 1 1 25.685682 9.829795 24.105031
23 1 1 25.367675 9.772622 24.305037
24 1 1 25.117175 9.937607 24.538338
25 1 1 24.991412 10.295266 24.512569
26 1 1 24.833993 10.563642 24.294410
27 1 1 24.726072 10.743221 23.977386
28 1 1 24.551909 11.066977 24.073558
29 1 1 24.400170 11.346165 24.281956
30 1 1 24.175585 11.347612 24.588484
31 1 1 24.299444 11.547482 24.886999
32 1 1 24.115042 11.840707 25.043253
33 1 1 23.947328 12.155148 25.175157
34 1 1 24.145108 12.462457 25.279293
35 1 1 24.440630 12.603643 25.471993
36 1 1 24.725756 12.638447 25.720774
37 1 1 24.916054 12.920604 25.889812
38 1 1 24.945217 12.921554 26.268690
39 1 1 24.726915 12.988670 26.572400
40 1 1 24.663098 13.334802 26.715648
41 1 1 24.781864 13.667170 26.574843
42 1 1 25.106685 13.846600 26.493015
43 1 1 25.298321 13.764555 26.175297
44 1 1 25.317309 13.906794 25.823434
45 1 1 25.504082 14.139944 25.588579
46 1 1 25.827128 14.020432 25.428084
47 1 1 26.048532 13.750288 25.577759
48 1 1 26.029126 13.532835 25.888785
49 1 1 26.263700 13.699671 26.136860
50 1 1 26.468612 13.856716 26.415693
51 1 1 26.285782 14.081991 26.661100
52 1 1 26.173053 14.107780 27.023077
53 1 1 26.185717 14.207916 27.389427
54 1 1 26.309675 14.001254 27.683239
55 1 1 26.526493 13.727709 27.533029
56 1 1 26.841276 13.753217 27.321697
57 1 1 26.984602 14.101402 27.372928
58 1 1 26.825018 14.433188 27.467006
59 1 1 26.988008 14.776303 27.477304
60 1 1 27.335169 14.780639 27.322837
61 1 1 27.420832 14.452569 27.151280
62 1 1 27.771700 14.321832 27.086477
63 1 1 28.148263 14.325521 27.035614
64 1 1 28.346327 14.219891 26.728999
65 1 1 28.340134 13.978953 26.435212
66 1 1 28.284317 14.148026 26.099505
67 1 1 28.237011 14.304275 25.756360
68 1 1 28.224485 14.664822 25.636990
69 1 1 28.230472 14.963033 25.401546
70 1 1 28.558662 15.121881 25.294502
71 1 1 28.763544 14.878134 25.087112
72 1 1 28.726965 14.518516 24.969908
73 1 1 29.016366 14.411421 24.748147
74 1 1 29.232388 14.522576 24.455950
75 1 1 29.444120 14.764683 24.253580
76 1 1 29.438655 14.772234 23.873694
77 1 1 29.198144 14.511952 23.736555
78 1 1 28.838279 14.446269 23.839430
79 1 1 28.480125 14.349872 23.756765
80 1 1 28.311199 14.009566 23.764248
81 1 1 28.174128 13.897781 23.427922
82 1 1 27.870365 13.760633 23.245388
83 1 1 27.678123 13.544351 22.999085
84 1 1 27.700745 13.225517 22.793579
85 1 1 28.033301 13.091439 22.667764
86 1 1 28.099303 12.791691 22.443722
87 1 1 28.153932 12.666714 22.089044
88 1 1 28.187265 12.422195 21.800082
89 1 1 28.225783 12.382280 21.424152
90 1 1 28.236575 12.035820 21.268432
91 1 1 27.998536 11.881609 21.015536
92 1 1 27.793275 11.627734 21.209999
93 1 1 27.896538 11.376852 21.476072
94 1 1 27.926624 11.045315 21.292829
95 1 1 27.660274 10.973725 21.031423
96 1 1 27.589530 10.600768 21.014148
97 1 1 27.519422 10.257504 21.161303
98 1 1 27.496927 9.946895 20.943550
99 1 1 27.271477 9.797398 20.676673
100 1 1 27.244590 9.418455 20.685560
101 1 1 26.889985 9.311726 20.770792
102 1 1 26.798439 8.948836 20.836596
103 1 1 27.036171 8.840660 21.112606
104 1 1 27.091651 8.645621 21.433981
105 1 1 27.304008 8.685164 21.746616
106 1 1 27.501684 9.006912 21.704155
107 1 1 27.710969 9.080278 22.012727
108 1 1 27.876956 9.407508 22.111566
109 1 1 27.981963 9.498619 22.465221
110 1 1 28.271633 9.367324 22.673194
111 1 1 28.589043 9.158396 22.673651
112 1 1 28.780116 8.844309 22.577523
113 1 1 28.846753 8.567662 22.325679
114 1 1 28.813725 8.190183 22.297066
115 1 1 28.786755 7.897863 22.055775
116 1 1 29.128878 7.746913 21.988201
117 1 1 29.207955 7.827718 21.625410
118 1 1 29.367345 7.908517 21.290050
119 1 1 29.457368 7.813003 20.933437
120 1 1 29.807807 7.807001 20.786614
121 1 1 30.055928 7.559245 20.933082
122 1 1 30.390840 7.389774 20.873807
123 1 1 30.694357 7.324432 20.654701
124 1 1 31.066838 7.388274 20.694472
125 1 1 31.293874 7.615757 20.897219
126 1 1 31.171127 7.884864 21.135787
127 1 1 30.994617 7.757727 21.447364
128 1 1 30.619108 7.723962 21.494832
129 1 1 30.288675 7.540187 21.532784
130 1 1 29.985024 7.350447 21.660046
131 1 1 30.021838 7.003329 21.810224
132 1 1 30.199142 6.667749 21.828906
133 1 1 30.414218 6.354476 21.830613
134 1 1 30.590918 6.029963 21.741911
135 1 1 30.553896 5.715592 21.531672
136 1 1 30.302473 5.579273 21.281466
137 1 1 30.171407 5.862212 21.064285
138 1 1 29.830324 5.874468 20.897216
139 1 1 29.756075 5.649312 20.600245
140 1 1 29.748497 5.273020 20.652659
141 1 1 29.958713 5.058358 20.885316
142 1 1 30.191360 4.776864 20.990372
143 1 1 30.157870 4.406153 21.066867
144 1 1 30.199396 4.273548 21.420550
145 1 1 30.108365 4.471749 21.731725
146 1 1 30.259824 4.719148 21.977191
147 1 1 30.050814 5.033330 22.021964
148 1 1 29.921979 5.387572 21.973864
149 1 1 29.557571 5.476080 22.035289
150 1 1 29.434649 5.685318 22.327708
151 1 1 29.058629 5.631006 22.335401
152 1 1 28.796949 5.369947 22.247243
153 1 1 28.867786 5.018069 22.122486
154 1 1 28.639557 4.718592 22.071256
155 1 1 28.263931 4.744097 22.019733
156 1 1 28.100141 5.061845 21.890854
157 1 1 28.090054 5.145497 21.520313
158 1 1 28.204750 5.258597 21.176143
159 1 1 28.463789 5.502959 21.043530
160 1 1 28.625234 5.595160 20.712118
161 1 1 28.887916 5.594516 20.437530
162 1 1 29.155937 5.841936 20.544058
163 1 1 29.208021 6.217579 20.568122
164 1 1 29.458328 6.481309 20.457699
165 1 1 29.257146 6.795780 20.386749
166 1 1 28.889275 6.822614 20.478131
167 1 1 28.535680 6.755426 20.600018
168 1 1 28.382903 6.407562 20.592969
169 1 1 28.127409 6.138246 20.511779
170 1 1 27.810836 5.937337 20.573564
171 1 1 27.616324 5.919440 20.247612
172 1 1 27.491674 6.256164 20.123196
173 1 1 27.196152 6.446195 19.978438
174 1 1 26.955967 6.216232 19.794514
175 1 1 26.658438 6.168969 20.026123
176 1 1 26.384218 6.265993 20.270643
177 1 1 26.137809 6.553791 20.299880
178 1 1 25.795721 6.699869 20.377576
179 1 1 25.429845 6.781020 20.314734
180 1 1 25.167283 7.053847 20.282686
181 1 1 24.940113 7.221825 20.536807
182 1 1 25.119709 7.527663 20.673218
183 1 1 25.053919 7.796678 20.933416
184 1 1 25.257005 7.995334 21.185788
185 1 1 25.265814 8.042080 21.562799
186 1 1 25.619224 8.138690 21.663636
187 1 1 25.819646 8.435664 21.536995
188 1 1 25.633486 8.560949 21.230322
189 1 1 25.814186 8.412615 20.930748
190 1 1 26.134120 8.605941 20.862429
191 1 1 26.402816 8.425661 20.663177
192 1 1 26.592950 8.522755 20.348818
193 1 1 26.387534 8.752088 20.126084
194 1 1 26.589950 9.035613 19.974291
195 1 1 26.861011 9.016191 19.708681
196 1 1 27.146221 8.919531 19.476922
197 1 1 27.413204 8.932442 19.206823
198 1 1 27.548241 9.160589 18.934584
199 1 1 27.483021 9.252732 18.571740
200 1 1 27.697417 9.488987 18.365300
201 1 1 27.581162 9.568204 18.012299
202 1 1 27.256301 9.762721 18.044365
203 1 1 27.179266 10.033264 17.788881
204 1 1 27.516794 10.160350 17.669198
205 1 1 27.771088 10.254067 17.402830
206 1 1 27.922923 10.167920 17.065303
207 1 1 28.248811 9.990071 16.984269
208 1 1 28.553570 9.763757 16.966834
209 1 1 28.774633 9.475057 16.856454
210 1 1 28.998028 9.212697 16.696260
211 1 1 28.777675 8.911269 16.625650
212 1 1 28.471543 8.708856 16.527101
213 1 1 28.122657 8.773787 16.391226
214 1 1 28.010958 8.590952 16.077387
215 1 1 27.642301 8.504426 16.109088
216 1 1 27.469957 8.534895 16.446385
217 1 1 27.117666 8.507116 16.586099
218 1 1 27.007734 8.747674 16.858948
219 1 1 27.261548 8.704188 17.138390
220 1 1 27.631959 8.636347 17.087469
221 1 1 27.951828 8.452944 17.179380
222 1 1 28.019798 8.133392 16.985302
223 1 1 28.248001 7.831453 17.019301
224 1 1 28.559743 7.845011 16.802429
225 1 1 28.806424 7.579228 16.916040
226 1 1 28.708234 7.428208 17.250632
227 1 1 28.646038 7.347652 17.616750
228 1 1 28.502704 7.123142 17.887767
229 1 1 28.682097 7.198374 18.214200
230 1 1 28.983586 7.221867 18.444314
231 1 1 29.277652 7.099978 18.651843
232 1 1 29.260574 7.173297 19.024311
233 1 1 29.376534 6.938379 19.299569
234 1 1 29.552752 6.655055 19.117705
235 1 1 29.329555 6.523924 18.839518
236 1 1 28.988870 6.365343 18.783076
237 1 1 28.668187 6.241360 18.944912
238 1 1 28.545574 6.484617 19.209849
239 1 1 28.462175 6.844718 19.298007
240 1 1 28.273325 7.137456 19.146218
241 1 1 28.035121 7.374913 19.323060
242 1 1 27.814156 7.327070 19.628487
243 1 1 27.925059 7.239750 19.981298
244 1 1 28.130357 7.411997 20.250712
245 1 1 28.057319 7.784677 20.237478
246 1 1 27.898021 8.128363 20.267550
247 1 1 27.911148 8.448901 20.063875
248 1 1 28.272697 8.556085 20.017042
249 1 1 28.275255 8.858791 19.787340
250 1 1 28.494842 9.168175 19.765817
251 1 1 28.408453 9.485792 19.575933
252 1 1 28.518030 9.847953 19.540827
253 1 1 28.747934 10.136464 19.449695
254 1 1 28.911010 10.335661 19.170183
255 1 1 28.859067 10.684389 19.028440
256 1 1 29.063757 10.912343 18.803631
257 1 1 29.071474 11.253413 18.970997
258 1 1 28.755758 11.464567 18.982711
259 1 1 28.609809 11.567191 18.647201
260 1 1 28.359693 11.841372 18.565548
261 1 1 28.367073 12.117471 18.304560
262 1 1 28.635890 12.110973 18.036055
263 1 1 28.836319 12.336543 17.805085
264 1 1 29.007822 12.141383 17.527778
265 1 1 29.094614 11.799322 17.668708
266 1 1 28.982186 11.474747 17.506195
267 1 1 28.888478 11.287515 17.189078
268 1 1 28.774868 11.366955 16.835267
269 1 1 28.528320 11.421415 16.551281
270 1 1 28.372335 11.683895 16.325065
271 1 1 28.374336 11.698652 15.945357
272 1 1 28.529641 11.386069 15.795117
273 1 1 28.896258 11.398899 15.695984
274 1 1 29.224106 11.211204 15.737052
275 1 1 29.341571 11.237418 16.097489
276 1 1 29.699721 11.198054 16.218232
277 1 1 30.009948 11.057176 16.049968
278 1 1 30.275552 11.018935 15.780911
279 1 1 30.558982 10.766780 15.802946
280 1 1 30.929015 10.786874 15.887041
281 1 1 31.300509 10.861387 15.916016
282 1 1 31.537158 10.586551 16.029430
283 1 1 31.493360 10.209215 16.019464
284 1 1 0.093999 9.886954 16.149795
285 1 1 0.429837 10.064748 16.151362
286 1 1 0.641099 10.027261 15.837733
287 1 1 0.720414 9.667408 15.744918
288 1 1 0.569726 9.566252 15.411061
289 1 1 0.316555 9.805791 15.259648
290 1 1 0.055649 9.999542 15.456596
291 1 1 31.302820 9.802500 15.566725
292 1 1 31.513033 9.720283 15.261027
293 1 1 31.440707 9.998081 15.012035
294 1 1 31.200428 10.290358 15.047255
295 1 1 30.884347 10.501072 15.037623
296 1 1 30.830795 10.801133 14.810697
297 1 1 30.798087 11.136376 14.986600
298 1 1 30.441998 11.258918 14.935765
299 1 1 30.336043 11.476809 14.643025
300 1 1 30.334977 11.663595 14.312102
301 1 1 30.680075 11.652462 14.153410
302 1 1 30.989073 11.513386 14.325394
303 1 1 30.998909 11.134623 14.296377
304 1 1 30.887770 10.860408 14.057936
305 1 1 30.842517 10.781548 13.688974
306 1 1 30.771256 10.950107 13.355942
307 1 1 30.483741 11.172771 13.245688
308 1 1 30.322999 11.310934 13.561082
309 1 1 30.089798 11.543698 13.750392
310 1 1 29.765272 11.686743 13.613934
311 1 1 29.591069 11.742096 13.280783
312 1 1 29.403685 12.062072 13.197703
313 1 1 29.474718 12.292560 12.904054
314 1 1 29.176194 12.427039 12.711185
315 1 1 29.284098 12.624709 12.405107
316 1 1 29.327968 12.815623 12.079489
317 1 1 29.463560 12.825807 11.724649
318 1 1 29.509136 13.177101 11.587115
319 1 1 29.378694 13.414390 11.320509
320 1 1 29.310386 13.382264 10.948082
321 1 1 29.247535 13.608386 10.649221
322 1 1 29.410903 13.742727 10.333525
323 1 1 29.466382 14.078258 10.163994
324 1 1 29.161889 14.299977 10.214241
325 1 1 28.873415 14.062166 10.282277
326 1 1 28.560613 13.846402 10.281496
327 1 1 28.583796 13.496796 10.134396
328 1 1 28.725411 13.151731 10.207028
329 1 1 28.620712 12.786645 10.194773
330 1 1 28.565341 12.601942 9.867330
331 1 1 28.372951 12.428744 9.589142
332 1 1 28.437247 12.522334 9.226503
333 1 1 28.549020 12.690653 8.904672
334 1 1 28.864923 12.891465 8.839251
335 1 1 29.104242 12.931204 9.131735
336 1 1 29.183900 13.255003 9.313968
337 1 1 28.869012 13.392547 9.476225
338 1 1 28.743831 13.690150 9.275820
339 1 1 28.475164 13.560908 9.040205
340 1 1 28.459419 13.735447 8.703029
341 1 1 28.713417 13.663086 8.429809
342 1 1 28.797332 13.927373 8.169981
343 1 1 28.513863 13.917849 7.917089
344 1 1 28.355379 14.086474 7.615678
345 1 1 28.454999 13.976531 7.265837
346 1 1 28.417126 13.781963 6.941632
347 1 1 28.651778 13.646924 6.674981
348 1 1 28.873105 13.344851 6.610435
349 1 1 29.186502 13.215019 6.439186
350 1 1 29.488787 13.098959 6.638067
351 1 1 29.469144 12.989333 7.001379
352 1 1 29.431259 13.130673 7.352075
353 1 1 29.133341 13.323300 7.488236
354 1 1 28.851378 13.452599 7.707732
355 1 1 28.603048 13.230471 7.890465
356 1 1 28.250321 13.115569 7.972812
357 1 1 28.074783 13.093173 7.636531
358 1 1 27.699314 13.045818 7.602173
359 1 1 27.340356 12.999857 7.486256
360 1 1 27.157517 12.809272 7.213040
361 1 1 26.986702 12.992284 6.927157
362 1 1 26.788177 13.109863 6.625226
363 1 1 26.418282 13.088487 6.540840
364 1 1 26.142459 13.287790 6.371725
365 1 1 26.178132 13.641653 6.505547
366 1 1 26.452091 13.683985 6.765460
367 1 1 26.611497 13.552984 7.084566
368 1 1 26.969457 13.670680 7.133681
369 1 1 27.053336 13.951379 7.375697
370 1 1 27.025937 13.947809 7.754692
371 1 1 26.880748 14.010867 8.100153
372 1 1 26.547661 13.932508 8.265420
373 1 1 26.243098 14.133972 8.370554
374 1 1 26.296954 14.510066 8.363269
375 1 1 25.986646 14.723941 8.314625
376 1 1 25.720612 14.892235 8.527470
377 1 1 25.435044 14.968362 8.766333
378 1 1 25.458213 14.905698 9.140414
379 1 1 25.352479 15.078642 9.461833
380 1 1 24.999584 15.172122 9.567315
381 1 1 24.723882 14.992022 9.756926
382 1 1 24.656583 15.161887 10.090118
383 1 1 24.866530 15.477224 10.119871
384 1 1 25.078635 15.577987 10.418631
385 1 1 24.951432 15.911250 10.549609
386 1 1 24.652523 16.139938 10.602101
387 1 1 24.366608 16.265653 10.385656
388 1 1 24.149024 16.537264 10.538250
389 1 1 24.215290 16.907764 10.485919
390 1 1 24.288161 17.096826 10.164445
391 1 1 24.194806 17.232127 9.821840
392 1 1 24.388609 17.075506 9.534941
393 1 1 24.588876 16.753941 9.564758
394 1 1 24.705745 16.462197 9.778363
395 1 1 25.072180 16.521067 9.859969
396 1 1 25.340410 16.287815 9.725634
397 1 1 25.333581 16.282902 9.345727
398 1 1 25.314071 16.090332 9.018716
399 1 1 25.040867 16.235596 8.798131
400 1 1 24.940728 16.521354 8.568535
401 1 1 24.697011 16.740918 8.376718
402 1 1 24.648340 17.069306 8.191806
403 1 1 24.557937 17.134984 7.828606
404 1 1 24.579451 17.219123 7.458663
405 1 1 24.624030 17.061482 7.115790
406 1 1 24.375371 17.106781 6.832036
407 1 1 24.289933 17.028158 6.470209
408 1 1 24.558865 16.951692 6.212859
409 1 1 24.594192 16.573702 6.196259
410 1 1 24.594025 16.258400 6.408356
411 1 1 24.867675 16.310070 6.666901
412 1 1 25.150671 16.066773 6.595343
413 1 1 25.170041 15.749059 6.387780
414 1 1 25.394338 15.801356 6.085529
415 1 1 25.760862 15.804082 5.985267
416 1 1 25.980518 15.727714 6.285799
417 1 1 25.940482 15.566566 6.627601
418 1 1 25.958219 15.199682 6.724973
419 1 1 25.639470 15.036434 6.597894
420 1 1 25.449103 14.849548 6.327276
421 1 1 25.474009 14.503331 6.172637
422 1 1 25.235050 14.372724 5.907608
423 1 1 25.084011 14.024560 5.926823
424 1 1 25.077773 13.671142 6.066310
425 1 1 25.236304 13.394732 5.859271
426 1 1 25.340247 13.179000 5.564219
427 1 1 25.647046 12.954972 5.554961
428 1 1 25.795375 12.977543 5.904087
429 1 1 25.562359 12.863485 6.181745
430 1 1 25.251107 12.650644 6.134617
431 1 1 24.894353 12.762692 6.202232
432 1 1 24.585073 12.792203 6.421036
433 1 1 24.534095 12.519019 6.680210
434 1 1 24.250882 12.429761 6.917325
435 1 1 23.986820 12.701680 6.944364
436 1 1 23.837491 12.997513 6.758395
437 1 1 23.461120 12.947624 6.774376
438 1 1 23.301961 13.103577 6.466565
439 1 1 23.318009 13.203889 6.100396
440 1 1 23.561681 13.288089 5.821228
441 1 1 23.926757 13.184500 5.801513
442 1 1 24.127030 12.861565 5.799678
443 1 1 24.278172 12.722810 5.479830
444 1 1 24.594460 12.680046 5.273593
445 1 1 24.573969 12.409415 5.007626
446 1 1 24.262173 12.239952 4.871737
447 1 1 23.889381 12.209069 4.804861
448 1 1 23.632072 12.487794 4.782392
449 1 1 23.439988 12.609028 5.087033
450 1 1 23.527173 12.590721 5.456442
451 1 1 2.323527 19.353971 1.529191
452 1 1 2.102200 19.110879 1.338610
453 1 1 1.749557 19.247020 1.299774
454 1 1 1.536557 19.093606 1.574539
455 1 1 1.228118 19.230733 1.749071
456 1 1 1.247638 19.599564 1.838417
457 1 1 1.297353 19.916990 1.635515
458 1 1 1.380418 20.283725 1.580688
459 1 1 1.305717 20.421035 1.234327
460 1 1 1.159279 20.238497 0.934935
461 1 1 1.262187 19.872989 0.920317
462 1 1 0.979084 19.619558 0.915293
463 1 1 0.604477 19.557168 0.901989
464 1 1 0.271272 19.738964 0.919999
465 1 1 31.506909 19.924555 0.823431
466 1 1 31.145706 20.004627 0.736709
467 1 1 30.834000 20.139468 0.566247
468 1 1 30.786308 20.304670 0.227376
469 1 1 31.057427 20.202764 31.534249
470 1 1 31.109370 20.577925 31.503325
471 1 1 31.020559 20.934710 31.407317
472 1 1 31.099673 21.286573 31.287597
473 1 1 31.006704 21.099407 0.052109
474 1 1 31.145617 21.403349 0.233002
475 1 1 30.929719 21.656657 0.416368
476 1 1 30.739622 21.536491 0.722674
477 1 1 30.909971 21.375563 1.021812
478 1 1 31.008601 21.296117 1.380086
479 1 1 30.970031 20.991496 1.603958
480 1 1 30.652054 20.792965 1.541695
481 1 1 30.509143 20.550261 1.286604
482 1 1 30.342543 20.208855 1.295892
483 1 1 29.977252 20.197931 1.191762
484 1 1 29.634204 20.046605 1.129966
485 1 1 29.517567 19.892486 0.802791
486 1 1 29.386854 20.170358 0.578960
487 1 1 29.325198 20.462913 0.344416
488 1 1 29.460323 20.735386 0.116602
489 1 1 29.794533 20.654988 31.507475
490 1 1 30.107025 20.668894 0.170381
491 1 1 30.185142 20.371362 0.393478
492 1 1 30.224751 20.074261 0.627064
493 1 1 30.083851 19.750121 0.487491
494 1 1 30.302049 19.444535 0.545855
495 1 1 30.570777 19.412061 0.279151
496 1 1 30.523483 19.680867 0.014754
497 1 1 30.638286 19.353399 31.412745
498 1 1 30.378063 19.100628 31.299647
499 1 1 30.090255 19.252381 31.103338
500 1 1 29.797686 19.494859 31.100497
501 1 1 29.465548 19.326358 31.025051
502 1 1 29.353089 19.010431 30.846325
503 1 1 29.306601 19.004509 30.469226
504 1 1 29.148981 19.086824 30.133398
505 1 1 28.956698 19.070971 29.806021
506 1 1 29.172626 19.158591 29.505858
507 1 1 28.979474 19.298391 29.209972
508 1 1 29.235166 19.453317 28.975409
509 1 1 29.588341 19.562533 28.887437
510 1 1 29.887190 19.717981 29.063292
511 1 1 29.966927 19.883014 29.396167
512 1 1 30.253903 20.045409 29.585039
513 1 1 30.341018 20.154862 29.938353
514 1 1 30.022832 20.301836 30.085175
515 1 1 30.089802 20.362935 30.454203
516 1 1 29.831824 20.190559 30.673598
517 1 1 29.560135 20.355304 30.882032
518 1 1 29.182918 20.400325 30.890991
519 1 1 28.934335 20.137017 30.775773
520 1 1 28.962954 19.759125 30.747863
521 1 1 28.866917 19.454483 30.542022
522 1 1 28.693557 19.545821 30.216440
523 1 1 28.511046 19.580541 29.884952
524 1 1 28.140322 19.516995 29.830868
525 1 1 27.854657 19.711687 29.988636
526 1 1 27.514675 19.627037 29.841506
527 1 1 27.207285 19.843909 29.895154
528 1 1 27.174332 20.026624 30.226709
529 1 1 26.980754 20.353043 30.246169
530 1 1 26.810491 20.555584 29.973428
531 1 1 26.871969 20.775908 29.669985
532 1 1 26.984554 20.554379 29.382496
533 1 1 27.083959 20.709841 29.050307
534 1 1 26.891822 20.798233 28.734601
535 1 1 26.526051 20.840917 28.640847
536 1 1 26.370407 21.045295 28.920855
537 1 1 26.445583 21.011157 29.291777
538 1 1 26.226686 20.728860 29.421363
539 1 1 26.015255 20.594200 29.135770
540 1 1 25.654815 20.488927 29.194083
541 1 1 25.417466 20.208343 29.290716
542 1 1 25.085181 20.194453 29.474548
543 1 1 25.155210 20.361481 29.808610
544 1 1 24.873922 20.604970 29.886009
545 1 1 24.668425 20.466320 30.174015
546 1 1 24.513510 20.649518 30.468700
547 1 1 24.168843 20.672184 30.627101
548 1 1 23.907094 20.947660 30.626825
549 1 1 23.661732 21.179958 30.452942
550 1 1 23.443588 21.356687 30.709029
551 1 1 23.375547 21.112127 30.991802
552 1 1 23.469339 20.769411 31.126520
553 1 1 23.322424 20.421163 31.087292
554 1 1 23.038944 20.219117 31.239663
555 1 1 23.088738 19.958562 31.511750
556 1 1 23.320259 20.132726 0.204785
557 1 1 23.603329 19.880570 0.231028
558 1 1 23.865331 19.983592 31.528660
559 1 1 24.232016 19.963031 0.073368
560 1 1 24.363707 19.915740 0.426668
561 1 1 24.366285 20.042589 0.784862
562 1 1 24.445663 19.795209 1.062174
563 1 1 24.767459 19.912216 1.226967
564 1 1 24.971441 19.724708 1.487029
565 1 1 24.843381 19.475140 1.743381
566 1 1 24.930742 19.127507 1.869551
567 1 1 25.086996 18.788713 1.941689
568 1 1 25.008106 18.532630 1.672249
569 1 1 25.290527 18.289902 1.596607
570 1 1 25.640824 18.307202 1.450346
571 1 1 25.867174 18.100868 1.675273
572 1 1 25.952155 17.736106 1.611031
573 1 1 26.056273 17.377252 1.541872
574 1 1 25.747708 17.167910 1.615112
575 1 1 25.557452 16.839799 1.638473
576 1 1 25.565636 16.477270 1.752077
577 1 1 25.474090 16.401712 2.113063
578 1 1 25.733776 16.196621 2.299880
579 1 1 26.065453 16.017086 2.346334
580 1 1 26.287954 15.744117 2.489095
581 1 1 26.249993 15.463006 2.741950
582 1 1 26.221912 15.121060 2.905305
583 1 1 26.064000 14.904701 3.174846
584 1 1 25.835879 14.788183 3.455531
585 1 1 25.510392 14.667599 3.300879
586 1 1 25.399845 14.905040 3.025558
587 1 1 25.143307 15.101131 2.825216
588 1 1 24.791703 14.960085 2.795549
589 1 1 24.415690 14.934102 2.747178
590 1 1 24.311954 15.115880 2.430010
591 1 1 23.962714 15.264970 2.415743
592 1 1 23.729044 15.451295 2.650438
593 1 1 23.543691 15.643150 2.921059
594 1 1 23.586429 15.499048 3.270069
595 1 1 23.832675 15.370121 3.529185
596 1 1 24.132401 15.292410 3.749469
597 1 1 24.323582 15.439258 4.043213
598 1 1 24.586673 15.397951 4.314280
599 1 1 24.559102 15.446618 4.690141
600 1 1 24.307511 15.190073 4.813778
601 1 1 24.282210 14.821039 4.900807
602 1 1 24.153714 14.536001 4.684839
603 1 1 23.819085 14.372332 4.609770
604 1 1 23.820828 14.289925 4.238817
605 1 1 23.613774 14.332715 3.923068
606 1 1 23.646434 14.049368 3.671974
607 1 1 23.560526 14.166629 3.320876
608 1 1 23.853581 14.268692 3.101554
609 1 1 23.942178 14.056649 2.798918
610 1 1 24.294282 13.985562 2.674946
611 1 1 24.371678 13.949906 2.304624
612 1 1 24.410697 13.585541 2.204047
613 1 1 24.641351 13.325966 2.049711
614 1 1 24.978271 13.151068 2.032513
615 1 1 25.320600 13.315707 2.022282
616 1 1 25.549199 13.104502 2.240307
617 1 1 25.415834 13.059001 2.593214
618 1 1 25.505664 13.371679 2.789588
619 1 1 25.760079 13.653276 2.770202
620 1 1 26.101109 13.817581 2.737003
621 1 1 26.426408 13.826226 2.540774
622 1 1 26.795015 13.779676 2.620535
623 1 1 27.138943 13.626904 2.673208
624 1 1 27.447410 13.845622 2.710774
625 1 1 27.461506 14.069990 3.017140
626 1 1 27.347455 14.085580 3.379285
627 1 1 27.589496 14.079794 3.672172
628 1 1 27.466057 13.847327 3.946256
629 1 1 27.344921 14.005823 4.269683
630 1 1 26.972018 14.015698 4.342109
631 1 1 26.768554 14.261882 4.548011
632 1 1 26.516749 14.162919 4.814845
633 1 1 26.492734 14.108549 5.190168
634 1 1 26.177822 14.005153 5.376017
635 1 1 26.054218 13.852708 5.701413
636 1 1 26.200176 14.000235 6.019740
637 1 1 26.377039 14.329647 6.087617
638 1 1 26.467972 14.637645 6.290764
639 1 1 26.157263 14.855880 6.275485
640 1 1 26.049474 15.216328 6.328953
641 1 1 26.331361 15.455453 6.417040
642 1 1 26.677713 15.415742 6.568247
643 1 1 26.988053 15.341764 6.361810
644 1 1 27.295330 15.333414 6.138402
645 1 1 27.488247 15.346784 5.811287
646 1 1 27.448777 15.477285 5.456588
647 1 1 27.595091 15.604210 5.129659
648 1 1 27.678535 15.335693 4.874050
649 1 1 27.830742 15.208770 4.549823
650 1 1 27.737242 14.925756 4.314109
651 1 1 27.774478 14.668753 4.036687
652 1 1 27.985386 14.353657 4.061842
653 1 1 28.259181 14.117463 3.945014
654 1 1 28.517259 13.987125 3.698422
655 1 1 28.490001 13.612436 3.641280
656 1 1 28.469640 13.235084 3.601396
657 1 1 28.581366 12.874211 3.642484
658 1 1 28.767855 12.572458 3.778745
659 1 1 29.135819 12.481253 3.804901
660 1 1 29.399544 12.466045 4.078064
661 1 1 29.531080 12.177450 4.287375
662 1 1 29.773967 11.947124 4.467253
663 1 1 29.842114 11.573520 4.480507
664 1 1 30.177424 11.476078 4.630415
665 1 1 30.482679 11.252175 4.597442
666 1 1 30.459841 10.915304 4.423096
667 1 1 30.469581 10.608221 4.646715
668 1 1 30.834362 10.564348 4.743721
669 1 1 30.975937 10.253658 4.576904
670 1 1 31.335614 10.161819 4.495675
671 1 1 31.324511 10.005710 4.149400
672 1 1 31.549437 10.126413 3.867906
673 1 1 0.128989 10.063469 3.517328
674 1 1 0.038373 9.743441 3.333559
675 1 1 0.069845 9.590198 2.987256
676 1 1 31.480761 9.317213 3.210261
677 1 1 0.158541 9.092806 3.412366
678 1 1 0.363216 8.966352 3.118227
679 1 1 0.715104 8.845081 3.041623
680 1 1 1.034799 8.679132 2.920560
681 1 1 1.086378 8.609712 2.550532
682 1 1 1.061311 8.704923 2.183508
683 1 1 1.140550 8.430958 1.932382
684 1 1 1.362418 8.122492 1.937233
685 1 1 1.344664 7.806267 2.147201
686 1 1 1.388081 7.437902 2.064607
687 1 1 1.447124 7.073104 1.976081
688 1 1 1.491431 6.708083 1.880184
689 1 1 1.316165 6.378357 1.809737
690 1 1 1.334466 6.010046 1.901455
691 1 1 1.673001 5.855902 1.823779
692 1 1 2.009647 5.978091 1.950818
693 1 1 2.122586 6.318262 1.824609
694 1 1 2.327581 6.555482 2.039328
695 1 1 2.566808 6.850676 2.033809
696 1 1 2.692782 7.204554 1.976357
697 1 1 2.634009 7.515015 2.187450
698 1 1 2.299416 7.511822 2.367554
699 1 1 2.324312 7.459280 2.743079
700 1 1 2.080438 7.535714 3.024298
701 1 1 1.705807 7.514400 3.084275
702 1 1 1.527105 7.198999 2.970310
703 1 1 1.458715 6.868315 3.144581
704 1 1 1.197163 6.715232 3.373832
705 1 1 0.940108 6.436219 3.352047
706 1 1 1.023546 6.066324 3.327237
707 1 1 0.767440 5.787474 3.294798
708 1 1 0.408312 5.884695 3.217497
709 1 1 0.038575 5.971167 3.232238
710 1 1 31.388974 5.701994 3.408178
711 1 1 31.399205 6.010442 3.186469
712 1 1 31.209876 6.314525 3.313307
713 1 1 31.014781 6.612758 3.445197
714 1 1 30.815183 6.854135 3.660366
715 1 1 30.831867 7.117566 3.933726
716 1 1 30.663491 7.457112 3.906203
717 1 1 30.758810 7.590161 3.563257
718 1 1 30.647336 7.657188 3.206212
719 1 1 30.576684 7.921080 2.942073
720 1 1 30.738315 8.255772 2.862974
721 1 1 30.895432 8.352072 2.530649
722 1 1 31.105497 8.268604 2.225188
723 1 1 31.440530 8.445836 2.252418
724 1 1 0.036838 8.785456 2.334919
725 1 1 0.166884 9.141855 2.313280
726 1 1 0.128166 9.342852 1.993122
727 1 1 0.258240 9.183198 1.673761
728 1 1 0.539827 8.935224 1.733909
729 1 1 0.830942 8.993190 1.496649
730 1 1 1.169773 9.067618 1.341555
731 1 1 1.388051 9.376771 1.375890
732 1 1 1.176803 9.685553 1.309347
733 1 1 1.320797 10.022762 1.409126
734 1 1 1.379131 10.330507 1.193973
735 1 1 1.640082 10.564259 1.046785
736 1 1 1.601885 10.663869 0.682067
737 1 1 1.793059 10.969953 0.563051
738 1 1 1.693116 11.335924 0.541220
739 1 1 1.325612 11.358305 0.635241
740 1 1 1.026878 11.440986 0.415418
741 1 1 0.764526 11.180646 0.327134
742 1 1 0.546473 11.136800 0.635242
743 1 1 0.334128 10.835963 0.729087
744 1 1 0.393389 10.538160 0.957564
745 1 1 0.313160 10.221396 0.763596
746 1 1 0.585724 10.191496 0.500509
747 1 1 0.858328 10.241447 0.240525
748 1 1 1.191746 10.420757 0.207647
749 1 1 1.053517 10.254751 31.447881
750 1 1 1.113259 10.338519 31.082075
751 1 1 0.891506 10.253226 30.785510
752 1 1 0.566791 10.119559 30.930746
753 1 1 0.386294 10.166694 31.261804
754 1 1 0.208007 10.437709 31.459704
755 1 1 31.498118 10.464743 31.186516
756 1 1 31.246520 10.186741 31.124764
757 1 1 31.105579 10.185574 30.771870
758 1 1 30.740883 10.155488 30.669441
759 1 1 30.463931 10.360674 30.509452
760 1 1 30.608559 10.585793 30.239630
761 1 1 30.387139 10.671634 29.942975
762 1 1 30.022112 10.620129 30.035188
763 1 1 29.803464 10.596865 29.725266
764 1 1 29.819541 10.258498 29.553076
765 1 1 29.469337 10.111454 29.541446
766 1 1 29.137098 9.927520 29.527819
767 1 1 28.930185 9.851216 29.218361
768 1 1 28.945978 9.999493 28.868840
769 1 1 28.969463 10.335364 28.692661
770 1 1 28.762184 10.651802 28.728747
771 1 1 28.924983 10.995134 28.733236
772 1 1 29.002310 11.358951 28.655407
773 1 1 28.912302 11.440710 28.295388
774 1 1 28.900730 11.728743 28.047793
775 1 1 29.088950 12.051401 28.117541
776 1 1 29.150374 12.123663 28.485515
777 1 1 28.858590 12.093521 28.727081
778 1 1 28.959938 11.936782 29.058081
779 1 1 29.274420 11.826544 29.240698
780 1 1 29.493624 11.856389 29.549662
781 1 1 29.361485 11.998316 29.876458
782 1 1 29.190452 12.291516 30.047285
783 1 1 29.295477 12.548304 30.306958
784 1 1 29.345946 12.921056 30.360890
785 1 1 29.535831 13.043378 30.055307
786 1 1 29.810180 12.791349 29.980377
787 1 1 29.898011 12.613023 29.656517
788 1 1 30.096387 12.321338 29.515214
789 1 1 30.110897 11.943573 29.553724
790 1 1 30.062535 11.600230 29.398234
791 1 1 30.148409 11.231156 29.369774
792 1 1 30.051004 10.917500 29.178640
793 1 1 29.862443 10.618801 29.038555
794 1 1 29.884173 10.258910 28.918530
795 1 1 29.805509 10.146836 28.564056
796 1 1 29.959458 9.820712 28.444295
797 1 1 30.294413 9.654499 28.511958
798 1 1 30.232051 9.346336 28.725375
799 1 1 29.931627 9.116515 28.688941
800 1 1 29.905987 8.893559 28.382292
801 1 1 29.954826 8.520003 28.432003
802 1 1 30.171266 8.211596 28.382622
803 1 1 30.364773 8.251482 28.058023
804 1 1 30.523124 8.559636 27.901928