LAMMPS data file for polymer system

27000 atoms
26940 bonds

1 atom types
1 bond types

0.0 31.55286053533754 xlo xhi
0.0 31.55286053533754 ylo yhi
0.0 31.55286053533754 zlo zhi

Masses

1 5.65487

Atoms

1 1 1 19.217656 10.261441 28.050589
2 1 1 19.130389 10.526056 28.308975
3 1 1 19.123651 10.737445 28.624679
4 1 1 19.108363 10.890588 28.972118
5 1 1 19.372550 10.838325 29.240210
6 1 1 19.469078 10.552956 29.471829
7 1 1 19.782093 10.633786 29.671549
8 1 1 20.118574 10.666259 29.497982
9 1 1 20.302379 10.503614 29.207874
10 1 1 20.458263 10.675472 28.906934
11 1 1 20.222656 10.941890 28.773102
12 1 1 19.958195 11.025520 29.032845
13 1 1 19.879715 11.397325 29.034159
14 1 1 20.142001 11.653141 29.134977
15 1 1 20.195162 11.989078 29.304447
16 1 1 20.258922 11.953422 29.677359
17 1 1 20.548445 11.907365 29.919134
18 1 1 20.792835 12.079534 30.153722
19 1 1 20.825255 12.025276 30.528428
20 1 1 20.533285 11.827262 30.669651
21 1 1 20.635889 11.469451 30.746095
22 1 1 20.320884 11.264906 30.803827
23 1 1 20.107569 11.217559 30.492933
24 1 1 19.850065 11.285055 30.221758
25 1 1 19.584230 11.131635 29.997719
26 1 1 19.301214 11.282864 29.794170
27 1 1 18.970529 11.132280 29.905399
28 1 1 18.848024 11.231057 30.251283
29 1 1 18.474728 11.207066 30.318172
30 1 1 18.209914 11.281009 30.580482
31 1 1 17.890492 11.391091 30.754411
32 1 1 17.520645 11.436715 30.680033
33 1 1 17.439104 11.794645 30.778202
34 1 1 17.170882 12.047908 30.869384
35 1 1 17.125277 12.352760 31.091613
36 1 1 16.963265 12.312241 31.432949
37 1 1 17.108928 12.168102 0.200099
38 1 1 16.783959 12.211953 0.008077
39 1 1 16.435618 12.061074 0.025228
40 1 1 16.106833 11.951594 31.422158
41 1 1 16.203541 11.778564 31.097954
42 1 1 16.049662 11.435720 31.041569
43 1 1 16.142648 11.159916 30.797262
44 1 1 16.015840 11.268532 30.455908
45 1 1 16.322811 11.409106 30.281529
46 1 1 16.598439 11.558957 30.067114
47 1 1 16.680039 11.713327 29.729607
48 1 1 16.897935 11.968347 29.551039
49 1 1 16.947410 12.304348 29.380581
50 1 1 17.155605 12.439765 29.092976
51 1 1 17.386006 12.159436 28.980144
52 1 1 17.457744 12.237668 28.615269
53 1 1 17.596691 11.927308 28.445651
54 1 1 17.843995 11.781743 28.196549
55 1 1 18.121932 11.587163 28.025407
56 1 1 18.452344 11.641956 27.845893
57 1 1 18.788843 11.717187 28.005607
58 1 1 19.057926 11.950692 28.137783
59 1 1 19.378468 12.151940 28.103841
60 1 1 19.722100 12.291344 28.020875
61 1 1 19.774760 12.638645 27.875928
62 1 1 19.698195 13.010521 27.860255
63 1 1 19.533861 13.120354 27.535708
64 1 1 19.444135 13.464551 27.401998
65 1 1 19.610959 13.776098 27.262328
66 1 1 19.894371 13.991098 27.395942
67 1 1 19.965936 13.962913 27.768077
68 1 1 20.259383 14.136063 27.936325
69 1 1 20.288472 14.444198 28.156794
70 1 1 20.618408 14.616137 28.234120
71 1 1 20.566297 14.992533 28.230843
72 1 1 20.515972 15.257960 28.498080
73 1 1 20.552061 15.137182 28.856564
74 1 1 20.508472 15.437658 29.085067
75 1 1 20.393360 15.729065 29.300082
76 1 1 20.097270 15.903504 29.462260
77 1 1 20.107211 16.066799 29.805241
78 1 1 20.066749 16.346893 30.058836
79 1 1 20.359214 16.338208 30.301300
80 1 1 20.598497 16.289155 30.592398
81 1 1 20.641078 16.631392 30.751962
82 1 1 20.675691 17.007128 30.796958
83 1 1 20.549418 17.295626 30.584298
84 1 1 20.513076 17.602899 30.363703
85 1 1 20.561472 17.803503 30.044617
86 1 1 20.708023 18.061997 29.807754
87 1 1 21.013973 18.271769 29.725354
88 1 1 21.330424 18.063008 29.699320
89 1 1 21.509784 17.899624 29.991784
90 1 1 21.490950 17.901744 30.371311
91 1 1 21.481008 18.150759 30.658179
92 1 1 21.398601 18.169214 31.028676
93 1 1 21.626759 18.263550 31.317544
94 1 1 21.965738 18.121647 31.414277
95 1 1 22.278627 18.047769 31.211688
96 1 1 22.193949 18.014031 30.842783
97 1 1 22.467187 18.156757 30.620589
98 1 1 22.648543 18.423407 30.419572
99 1 1 22.625274 18.416936 30.040341
100 1 1 22.525130 18.159651 29.779236
101 1 1 22.212090 18.289095 29.607044
102 1 1 21.874281 18.449883 29.540467
103 1 1 21.667259 18.437129 29.222066
104 1 1 21.785926 18.147314 29.006834
105 1 1 21.791953 18.013304 28.651299
106 1 1 21.688080 18.191640 28.332228
107 1 1 21.516006 18.239214 27.996777
108 1 1 21.288841 18.320843 27.703293
109 1 1 21.132042 18.069090 27.465733
110 1 1 20.956799 18.182347 27.148144
111 1 1 20.620778 18.016398 27.085289
112 1 1 20.328495 17.991023 26.843780
113 1 1 20.476902 17.880023 26.512036
114 1 1 20.785119 17.662486 26.557644
115 1 1 20.899882 17.360143 26.358100
116 1 1 20.989917 17.002245 26.448669
117 1 1 21.012673 16.778243 26.754782
118 1 1 20.911477 16.456108 26.929104
119 1 1 20.783019 16.139933 26.761975
120 1 1 20.999838 15.852220 26.641101
121 1 1 21.272445 15.751563 26.396247
122 1 1 21.406088 15.884594 26.066334
123 1 1 21.452819 16.016998 25.713226
124 1 1 21.739932 16.131534 25.492211
125 1 1 21.771433 16.451576 25.289774
126 1 1 21.779426 16.731130 25.547041
127 1 1 21.580510 16.970219 25.765372
128 1 1 21.655695 17.193519 26.063507
129 1 1 21.988603 17.372920 26.026255
130 1 1 22.338459 17.332710 26.169026
131 1 1 22.553126 17.635855 26.088895
132 1 1 22.815473 17.732751 25.831630
133 1 1 22.837433 17.905442 25.493850
134 1 1 22.820486 18.129312 25.187264
135 1 1 23.059217 18.424956 25.185651
136 1 1 23.398030 18.367923 25.347987
137 1 1 23.664137 18.609201 25.224004
138 1 1 23.880135 18.500083 24.931023
139 1 1 24.234156 18.375061 24.989663
140 1 1 24.538119 18.534116 24.826238
141 1 1 24.869156 18.693490 24.923269
142 1 1 24.798341 18.896486 25.236602
143 1 1 25.076059 18.952100 25.489940
144 1 1 25.200033 19.267750 25.661390
145 1 1 25.177092 19.646882 25.672920
146 1 1 25.281095 19.975779 25.513517
147 1 1 25.365260 20.344087 25.472701
148 1 1 25.295108 20.696917 25.350269
149 1 1 25.587974 20.935852 25.389507
150 1 1 25.954989 20.906701 25.483581
151 1 1 26.142792 20.623212 25.653180
152 1 1 26.095321 20.253662 25.578486
153 1 1 25.896554 20.116037 25.871660
154 1 1 25.711288 20.257962 26.171550
155 1 1 25.850575 20.587012 26.300875
156 1 1 25.951125 20.636899 26.663919
157 1 1 26.042647 20.988494 26.775296
158 1 1 26.330516 21.232443 26.820247
159 1 1 26.496261 21.483420 27.052495
160 1 1 26.779484 21.674393 26.886018
161 1 1 26.811609 21.864057 26.558306
162 1 1 26.909834 21.828629 26.192934
163 1 1 26.825315 21.979738 25.854669
164 1 1 26.499715 21.813084 25.751657
165 1 1 26.125519 21.874909 25.775208
166 1 1 25.876649 21.855300 25.488712
167 1 1 25.534737 21.720037 25.584630
168 1 1 25.270568 21.723448 25.857765
169 1 1 24.921166 21.590520 25.925942
170 1 1 24.861350 21.311471 25.675036
171 1 1 24.832080 21.457848 25.325584
172 1 1 25.015031 21.778665 25.236112
173 1 1 24.965680 22.130255 25.371572
174 1 1 24.829433 22.379422 25.624065
175 1 1 24.515108 22.585562 25.679795
176 1 1 24.381595 22.854646 25.447054
177 1 1 24.023699 22.978640 25.477639
178 1 1 23.807773 22.874890 25.772616
179 1 1 23.983201 22.773630 26.094130
180 1 1 23.905021 22.909076 26.440457
181 1 1 24.019632 22.675861 26.717720
182 1 1 24.268588 22.388799 26.713668
183 1 1 24.347410 22.030192 26.811587
184 1 1 24.235549 21.680030 26.715289
185 1 1 24.184655 21.416153 26.983950
186 1 1 24.229340 21.113171 27.208906
187 1 1 24.339802 20.749622 27.214405
188 1 1 24.398474 20.551205 27.533134
189 1 1 24.218759 20.229657 27.626460
190 1 1 23.946801 20.215016 27.891459
191 1 1 23.699149 20.368202 28.135596
192 1 1 23.638969 20.735548 28.211984
193 1 1 23.540986 21.063666 28.376720
194 1 1 23.772055 21.347004 28.273151
195 1 1 23.706675 21.687182 28.116932
196 1 1 23.518656 21.892036 27.857927
197 1 1 23.300477 22.183957 27.965539
198 1 1 23.414140 22.544459 27.926565
199 1 1 23.627072 22.853011 27.988662
200 1 1 23.498637 23.131684 28.212818
201 1 1 23.446017 23.404569 28.471979
202 1 1 23.410617 23.782482 28.453864
203 1 1 23.097860 23.868589 28.651775
204 1 1 22.958737 23.898797 29.004099
205 1 1 23.058050 23.584081 29.192489
206 1 1 22.947240 23.370478 29.486589
207 1 1 23.038358 23.013426 29.579389
208 1 1 23.354014 22.975086 29.787453
209 1 1 23.507154 22.868358 30.118447
210 1 1 23.488341 22.584693 30.370599
211 1 1 23.179666 22.366408 30.332247
212 1 1 22.802509 22.329268 30.360058
213 1 1 22.623206 22.071762 30.145720
214 1 1 22.517954 21.776589 30.360650
215 1 1 22.419750 21.416558 30.432296
216 1 1 22.599377 21.283480 30.739582
217 1 1 22.539566 21.396279 31.097491
218 1 1 22.527489 21.540932 31.448674
219 1 1 22.291718 21.452069 0.180270
220 1 1 21.952117 21.444472 0.350603
221 1 1 21.677046 21.300557 0.131457
222 1 1 21.360962 21.187646 0.309619
223 1 1 21.102385 21.460040 0.367406
224 1 1 20.780025 21.626100 0.481020
225 1 1 20.402550 21.645090 0.520418
226 1 1 20.139661 21.740219 0.263047
227 1 1 19.962392 22.065506 0.347686
228 1 1 19.779978 22.011435 0.676627
229 1 1 19.604438 21.679944 0.737447
230 1 1 19.719774 21.364027 0.560546
231 1 1 19.931093 21.120925 0.762154
232 1 1 20.037619 20.759021 0.716575
233 1 1 19.797353 20.464633 0.713637
234 1 1 19.447416 20.350055 0.807529
235 1 1 19.302786 20.142287 0.524131
236 1 1 19.292539 19.871982 0.257241
237 1 1 19.276088 19.503806 0.349848
238 1 1 19.220531 19.485483 0.725318
239 1 1 19.530799 19.628859 0.891382
240 1 1 19.756147 19.879906 1.066292
241 1 1 20.061691 19.968420 1.274157
242 1 1 20.027300 20.108319 1.625790
243 1 1 20.193397 20.157171 1.964058
244 1 1 20.055376 19.877601 2.181291
245 1 1 19.789681 19.615764 2.108849
246 1 1 19.585609 19.301985 2.043293
247 1 1 19.333117 19.234153 1.767528
248 1 1 19.323457 19.333302 1.400818
249 1 1 18.966867 19.395694 1.285274
250 1 1 18.708191 19.229089 1.062273
251 1 1 18.350976 19.339008 1.130945
252 1 1 18.104324 19.473947 0.875300
253 1 1 18.244555 19.557870 0.532237
254 1 1 18.596901 19.687324 0.473126
255 1 1 18.598309 20.046570 0.596983
256 1 1 18.604659 20.384304 0.771039
257 1 1 18.560933 20.559610 1.105338
258 1 1 18.579599 20.798553 1.400225
259 1 1 18.859416 20.909398 1.632207
260 1 1 19.060239 20.735482 1.903911
261 1 1 19.009864 20.365129 1.835344
262 1 1 19.085779 20.118956 2.114693
263 1 1 18.778903 20.107691 2.338524
264 1 1 18.642982 20.039985 2.686865
265 1 1 18.333328 19.822010 2.718509
266 1 1 18.017289 20.032800 2.727843
267 1 1 17.928797 20.249715 3.027038
268 1 1 17.996565 20.203801 3.398116
269 1 1 17.736561 20.100853 3.655408
270 1 1 17.653048 19.751581 3.779644
271 1 1 17.729722 19.424707 3.957618
272 1 1 17.999327 19.488983 4.217583
273 1 1 18.005745 19.783751 4.457313
274 1 1 18.366301 19.861549 4.548671
275 1 1 18.619737 19.578729 4.562194
276 1 1 18.954782 19.711537 4.682638
277 1 1 19.171599 19.432524 4.822433
278 1 1 19.550860 19.442079 4.844110
279 1 1 19.763142 19.756350 4.820229
280 1 1 19.636281 19.989562 5.092108
281 1 1 19.286736 20.138131 5.104182
282 1 1 18.988060 20.351763 5.201927
283 1 1 19.034399 20.712322 5.312606
284 1 1 19.333637 20.907547 5.183208
285 1 1 19.364567 21.286219 5.190362
286 1 1 19.580676 21.484241 4.948528
287 1 1 19.788662 21.798194 4.897779
288 1 1 19.687261 22.121666 5.069485
289 1 1 19.718341 22.163805 5.445861
290 1 1 19.578629 21.958847 5.733737
291 1 1 19.552954 21.621504 5.906771
292 1 1 19.309377 21.418210 6.115916
293 1 1 19.129857 21.368437 6.447119
294 1 1 19.161699 21.680833 6.661115
295 1 1 18.874192 21.925001 6.615051
296 1 1 18.586119 21.945091 6.368048
297 1 1 18.316053 21.871297 6.111106
298 1 1 18.090081 21.566300 6.093408
299 1 1 17.716848 21.624528 6.134719
300 1 1 17.647859 21.997763 6.153069
301 1 1 17.417497 22.234793 6.340552
302 1 1 17.391669 22.263658 6.718573
303 1 1 17.398462 22.637053 6.788787
304 1 1 17.478149 22.855975 6.488582
305 1 1 17.536989 23.203291 6.631094
306 1 1 17.719226 23.498551 6.476140
307 1 1 17.788591 23.832126 6.644415
308 1 1 17.963485 24.166986 6.603414
309 1 1 18.311652 24.276778 6.497938
310 1 1 18.487681 24.612439 6.525239
311 1 1 18.654228 24.850279 6.770380
312 1 1 18.835339 24.889829 7.102095
313 1 1 18.707088 25.187645 7.300229
314 1 1 18.836211 25.267864 7.648499
315 1 1 19.120376 25.120738 7.853448
316 1 1 19.443747 25.030209 7.675581
317 1 1 19.676064 25.327890 7.632978
318 1 1 20.000185 25.519848 7.583000
319 1 1 19.896668 25.873855 7.491551
320 1 1 19.926590 26.112494 7.197347
321 1 1 19.596312 26.112244 7.009420
322 1 1 19.490415 25.760091 6.913641
323 1 1 19.620254 25.620125 6.585081
324 1 1 19.881294 25.352641 6.653714
325 1 1 20.205626 25.182546 6.755089
326 1 1 20.109513 24.860554 6.932525
327 1 1 20.363481 24.746516 7.191166
328 1 1 20.629902 24.906423 7.409912
329 1 1 20.682826 24.996959 7.775155
330 1 1 20.375060 25.120988 7.960348
331 1 1 20.407976 25.454995 8.138550
332 1 1 20.768048 25.537218 8.227923
333 1 1 21.103507 25.647170 8.368558
334 1 1 21.349499 25.529120 8.633043
335 1 1 21.710871 25.550414 8.748615
336 1 1 22.070034 25.444378 8.684131
337 1 1 22.343598 25.197329 8.776488
338 1 1 22.678070 25.180080 8.596958
339 1 1 22.991246 25.370947 8.497507
340 1 1 23.198820 25.671301 8.602864
341 1 1 23.210938 25.672526 8.982669
342 1 1 23.190179 25.997193 9.179037
343 1 1 23.030841 26.279762 9.376942
344 1 1 22.875182 26.622929 9.425998
345 1 1 22.828627 26.894243 9.687955
346 1 1 22.850756 27.184204 9.932563
347 1 1 22.870881 27.488672 10.159044
348 1 1 22.574810 27.697014 10.274525
349 1 1 22.267168 27.475438 10.248831
350 1 1 22.029964 27.427618 9.955833
351 1 1 21.680156 27.571581 9.992007
352 1 1 21.566091 27.836059 9.744135
353 1 1 21.525828 28.213441 9.725116
354 1 1 21.427624 28.317033 9.372945
355 1 1 21.467186 28.434055 9.013583
356 1 1 21.589773 28.793283 9.031697
357 1 1 21.709258 28.980464 8.723336
358 1 1 21.533014 29.232543 8.500191
359 1 1 21.479975 29.604025 8.440291
360 1 1 21.227343 29.864980 8.328576
361 1 1 20.886763 29.970722 8.197336
362 1 1 20.668359 30.042440 8.499918
363 1 1 20.412726 29.912775 8.749396
364 1 1 20.542724 29.597778 8.917556
365 1 1 20.918111 29.554281 8.877652
366 1 1 20.978638 29.209634 8.729480
367 1 1 20.702668 28.960900 8.649655
368 1 1 20.834725 28.635383 8.504741
369 1 1 20.804247 28.265201 8.424514
370 1 1 20.759482 27.933823 8.244001
371 1 1 20.542138 27.749990 7.992274
372 1 1 20.259774 27.719836 7.739764
373 1 1 20.078776 28.048506 7.679632
374 1 1 19.847782 28.276923 7.876780
375 1 1 19.611658 28.312835 8.172340
376 1 1 19.556527 28.572572 8.444180
377 1 1 19.758191 28.885237 8.521459
378 1 1 20.134617 28.859484 8.476288
379 1 1 20.263473 28.990133 8.143531
380 1 1 20.141125 29.138924 7.815977
381 1 1 19.970971 29.425549 7.633512
382 1 1 19.934476 29.545502 7.274793
383 1 1 20.238276 29.757568 7.190332
384 1 1 20.252504 29.942828 6.858856
385 1 1 20.561599 29.856632 6.655312
386 1 1 20.921688 29.755521 6.722492
387 1 1 21.170973 30.003458 6.866660
388 1 1 21.239214 30.368604 6.786590
389 1 1 21.402378 30.702829 6.708674
390 1 1 21.599067 30.807998 6.401017
391 1 1 21.617800 30.500414 6.178663
392 1 1 21.486186 30.502088 5.822187
393 1 1 21.213781 30.433267 5.566337
394 1 1 20.979159 30.171316 5.710330
395 1 1 20.611356 30.254145 5.662793
396 1 1 20.397215 30.149066 5.366986
397 1 1 20.127763 30.415978 5.343465
398 1 1 19.770788 30.514362 5.258087
399 1 1 19.668167 30.568453 4.896226
400 1 1 19.356744 30.785803 4.909445
401 1 1 19.469348 31.148631 4.918189
402 1 1 19.773709 31.301132 5.087032
403 1 1 19.930901 31.551616 5.325671
404 1 1 19.929541 0.219402 5.635047
405 1 1 19.788227 0.570154 5.672511
406 1 1 19.571248 0.649202 5.974291
407 1 1 19.557754 1.024716 6.030919
408 1 1 19.789905 1.309337 5.933468
409 1 1 20.050846 1.434514 5.687215
410 1 1 20.408941 1.449195 5.560913
411 1 1 20.776512 1.387260 5.487048
412 1 1 21.150358 1.419354 5.547121
413 1 1 21.525211 1.367056 5.581037
414 1 1 21.631356 1.027083 5.713519
415 1 1 21.836050 0.751713 5.550206
416 1 1 21.873829 0.561807 5.223237
417 1 1 21.853536 0.185457 5.174773
418 1 1 21.648654 0.010054 5.442462
419 1 1 21.623775 31.206045 5.570622
420 1 1 21.292103 31.244943 5.389293
421 1 1 21.037326 31.115170 5.138997
422 1 1 20.777690 31.124704 4.861692
423 1 1 20.654199 30.994978 4.526549
424 1 1 20.593726 30.953687 4.153670
425 1 1 20.471572 30.733101 3.869382
426 1 1 20.303314 30.866531 3.555877
427 1 1 20.000600 30.781545 3.342472
428 1 1 19.955030 30.483717 3.110908
429 1 1 19.924719 30.486262 2.732128
430 1 1 19.936624 30.720323 2.433007
431 1 1 19.993946 31.031257 2.222212
432 1 1 19.871234 31.373518 2.332663
433 1 1 19.634595 31.371187 2.629978
434 1 1 19.258926 31.339355 2.677507
435 1 1 19.150768 31.431991 3.029814
436 1 1 19.021185 31.206086 3.306536
437 1 1 18.978538 0.028412 3.263918
438 1 1 18.843362 0.143128 3.600025
439 1 1 18.655471 0.470729 3.557896
440 1 1 18.341244 0.612932 3.717394
441 1 1 18.101273 0.571835 4.009156
442 1 1 17.785876 0.752975 4.119213
443 1 1 17.574346 0.989792 3.910472
444 1 1 17.216145 0.876194 3.966925
445 1 1 16.837500 0.902035 3.947927
446 1 1 16.666574 1.102222 3.673867
447 1 1 16.660615 1.036955 3.299561
448 1 1 16.363542 1.236875 3.172360
449 1 1 16.407973 1.583760 3.321010
450 1 1 16.506867 1.871095 3.549173
451 1 1 30.559976 27.582401 17.280016
452 1 1 30.721136 27.506049 17.615572
453 1 1 30.820811 27.288271 17.910593
454 1 1 30.816823 26.954532 18.092260
455 1 1 31.116769 26.791993 18.259631
456 1 1 31.425480 27.004712 18.321664
457 1 1 0.240998 27.062575 18.248527
458 1 1 0.302976 27.242733 17.919738
459 1 1 0.103295 27.405663 17.640488
460 1 1 31.493888 27.630685 17.380806
461 1 1 31.519911 27.763400 17.735924
462 1 1 31.527785 28.011675 18.023496
463 1 1 0.348026 27.953061 17.981547
464 1 1 0.691946 28.089007 18.068938
465 1 1 0.926024 28.175913 17.782485
466 1 1 0.962492 27.907167 17.516316
467 1 1 0.879561 27.693807 17.213002
468 1 1 0.772597 27.461696 16.931784
469 1 1 0.755173 27.082781 16.908994
470 1 1 0.409253 26.926650 16.928037
471 1 1 0.151566 27.202652 16.885370
472 1 1 31.339490 27.096848 16.890503
473 1 1 31.016003 27.295128 16.911518
474 1 1 30.846838 27.468403 16.618672
475 1 1 30.866616 27.489133 16.239754
476 1 1 30.621772 27.441105 15.953145
477 1 1 30.304328 27.607017 15.826247
478 1 1 29.966106 27.634964 15.655295
479 1 1 29.762340 27.324531 15.574607
480 1 1 29.783741 27.175602 15.225663
481 1 1 29.689927 26.894877 14.987351
482 1 1 29.981297 26.753533 14.788542
483 1 1 29.970441 26.425618 14.596829
484 1 1 29.762247 26.130288 14.714453
485 1 1 29.955571 25.927937 14.971514
486 1 1 30.285200 25.778798 15.087713
487 1 1 30.262057 25.502182 15.347228
488 1 1 30.432038 25.172980 15.431683
489 1 1 30.441367 25.067613 15.796663
490 1 1 30.651514 24.794507 15.956822
491 1 1 30.636224 24.730970 16.331161
492 1 1 30.429602 24.791717 16.644238
493 1 1 30.195538 24.493043 16.664445
494 1 1 29.881248 24.469088 16.452200
495 1 1 29.844394 24.598786 16.096925
496 1 1 29.828431 24.938203 15.926803
497 1 1 29.591131 25.105801 15.681855
498 1 1 29.343368 25.386221 15.615686
499 1 1 29.165620 25.618977 15.373549
500 1 1 28.963826 25.389546 15.147628
501 1 1 28.727107 25.094123 15.180628
502 1 1 28.858685 24.774272 15.023201
503 1 1 29.145547 24.526053 15.000902
504 1 1 29.322629 24.256515 14.799926
505 1 1 29.288249 23.883893 14.866038
506 1 1 29.604430 23.745471 15.025000
507 1 1 29.937358 23.577637 14.951577
508 1 1 30.137049 23.660401 14.639049
509 1 1 30.422401 23.864180 14.492598
510 1 1 30.778686 23.735588 14.462182
511 1 1 30.763363 23.355919 14.458184
512 1 1 30.663789 22.989200 14.456718
513 1 1 30.942656 22.791506 14.622701
514 1 1 31.019397 22.585859 14.932895
515 1 1 31.102829 22.476248 15.287049
516 1 1 31.307074 22.230442 15.492629
517 1 1 0.015423 22.365955 15.252200
518 1 1 0.011592 21.988755 15.298085
519 1 1 31.321238 21.764117 15.111579
520 1 1 31.203405 21.949745 14.801648
521 1 1 31.212755 22.007551 14.426187
522 1 1 31.476690 21.956756 14.157564
523 1 1 0.104197 22.274936 14.260662
524 1 1 0.390868 22.456791 14.431390
525 1 1 0.329273 22.817487 14.533881
526 1 1 0.040722 22.879251 14.773305
527 1 1 31.454176 23.190762 14.606192
528 1 1 31.548976 23.397067 14.910907
529 1 1 31.362960 23.462978 15.235644
530 1 1 31.304865 23.838312 15.247869
531 1 1 31.111479 23.997702 15.533521
532 1 1 30.812273 24.197872 15.411836
533 1 1 30.646729 24.491417 15.236261
534 1 1 30.886948 24.677176 15.007813
535 1 1 31.058519 24.470496 14.739025
536 1 1 31.303825 24.421584 14.452960
537 1 1 0.023667 24.684447 14.483560
538 1 1 0.117043 24.316914 14.508066
539 1 1 0.031719 24.100870 14.207325
540 1 1 0.184295 23.926870 13.905921
541 1 1 31.387691 23.792067 13.969975
542 1 1 31.064213 23.594158 13.945609
543 1 1 30.794989 23.349127 13.836619
544 1 1 30.697148 22.982426 13.817717
545 1 1 31.005846 22.778059 13.732044
546 1 1 31.274468 22.510720 13.759828
547 1 1 31.349400 22.188583 13.572710
548 1 1 0.032369 21.894325 13.525845
549 1 1 0.266522 21.595698 13.545706
550 1 1 0.190694 21.243854 13.667591
551 1 1 0.196143 20.879135 13.561055
552 1 1 31.379211 20.948886 13.613859
553 1 1 31.319077 20.630301 13.812070
554 1 1 31.015697 20.618741 14.040602
555 1 1 30.728274 20.813425 14.195152
556 1 1 30.894617 21.087662 14.398926
557 1 1 31.062333 21.222330 14.712192
558 1 1 31.438859 21.248968 14.668389
559 1 1 0.052025 21.248278 15.010200
560 1 1 0.331145 21.444114 14.842449
561 1 1 0.638091 21.643441 14.944690
562 1 1 0.963546 21.650241 15.140732
563 1 1 1.182622 21.675901 15.450162
564 1 1 1.277109 21.525551 15.786120
565 1 1 1.383447 21.556220 16.149646
566 1 1 1.664014 21.780022 16.274524
567 1 1 1.753822 22.149230 16.279002
568 1 1 1.656406 22.327129 16.600347
569 1 1 1.281142 22.386615 16.606522
570 1 1 0.942148 22.529376 16.701930
571 1 1 0.660193 22.283266 16.767738
572 1 1 0.680727 21.991838 16.524739
573 1 1 0.398450 21.778625 16.385960
574 1 1 0.480979 21.685582 16.026889
575 1 1 0.561944 21.807838 15.676321
576 1 1 0.653838 22.088112 15.436733
577 1 1 0.859468 22.404693 15.480240
578 1 1 0.725030 22.741702 15.593161
579 1 1 0.937184 22.880833 15.876062
580 1 1 1.305602 22.803954 15.823547
581 1 1 1.669676 22.789540 15.715646
582 1 1 1.970758 22.570076 15.640913
583 1 1 2.125326 22.266904 15.471811
584 1 1 2.176383 21.907929 15.585522
585 1 1 2.289076 21.796697 15.930960
586 1 1 2.561899 21.841585 16.191637
587 1 1 2.722165 22.141692 16.360903
588 1 1 3.071837 22.158817 16.508674
589 1 1 3.247566 22.436395 16.699645
590 1 1 3.301322 22.353214 17.066512
591 1 1 3.461406 22.170048 17.358443
592 1 1 3.391587 21.796884 17.341888
593 1 1 3.309269 21.631486 17.673953
594 1 1 3.126650 21.541984 17.994952
595 1 1 2.902281 21.682438 18.267589
596 1 1 2.914971 21.688181 18.647334
597 1 1 2.818011 21.342015 18.770491
598 1 1 2.722202 21.102380 19.049410
599 1 1 2.417204 20.985512 19.243621
600 1 1 2.422756 20.868163 19.605005
601 1 1 2.761490 20.814074 19.768509
602 1 1 3.090296 20.818645 19.578073
603 1 1 3.256616 20.487600 19.493535
604 1 1 3.595185 20.402792 19.643798
605 1 1 3.969259 20.397327 19.577174
606 1 1 4.244942 20.522826 19.347721
607 1 1 4.336748 20.227811 19.126502
608 1 1 4.504502 19.916338 19.265222
609 1 1 4.433337 19.853241 19.633128
610 1 1 4.309703 19.553582 19.831418
611 1 1 3.994641 19.347691 19.779029
612 1 1 3.706531 19.368159 20.025958
613 1 1 3.462935 19.657242 20.064589
614 1 1 3.376140 20.008421 20.180951
615 1 1 3.404323 20.237148 20.483092
616 1 1 3.560538 20.583281 20.496826
617 1 1 3.520867 20.926217 20.338013
618 1 1 3.498453 21.258697 20.155382
619 1 1 3.372350 21.508336 20.412634
620 1 1 3.296094 21.581859 20.777572
621 1 1 2.955999 21.439910 20.870232
622 1 1 2.851363 21.081174 20.939224
623 1 1 2.619888 21.013632 21.232920
624 1 1 2.550969 20.821998 21.553742
625 1 1 2.500753 20.475614 21.701717
626 1 1 2.125156 20.418699 21.692337
627 1 1 2.060407 20.130622 21.453132
628 1 1 1.768406 19.903822 21.540866
629 1 1 1.567271 19.601435 21.429031
630 1 1 1.750712 19.269436 21.451957
631 1 1 2.075106 19.315773 21.259548
632 1 1 2.363110 19.082725 21.344060
633 1 1 2.623606 18.852657 21.497717
634 1 1 2.829709 18.689868 21.772347
635 1 1 2.884836 18.788145 22.135256
636 1 1 3.216662 18.836939 22.313891
637 1 1 3.448464 19.040436 22.535829
638 1 1 3.620796 19.352403 22.667657
639 1 1 3.659856 19.390119 23.043758
640 1 1 3.634546 19.562262 23.381584
641 1 1 3.598751 19.707614 23.730857
642 1 1 3.374251 19.542223 23.989015
643 1 1 3.091711 19.782132 24.072767
644 1 1 2.942286 19.676842 24.405913
645 1 1 2.562441 19.681954 24.415511
646 1 1 2.381383 20.015200 24.439281
647 1 1 2.650942 20.280961 24.405982
648 1 1 2.806019 20.558886 24.198356
649 1 1 2.969284 20.874041 24.334085
650 1 1 3.098578 21.229619 24.369402
651 1 1 3.378586 21.425141 24.202769
652 1 1 3.427073 21.696366 23.941071
653 1 1 3.549165 21.845641 23.613641
654 1 1 3.379864 22.146324 23.454496
655 1 1 3.400011 22.360992 23.141587
656 1 1 3.144503 22.327784 22.862280
657 1 1 3.061179 21.957400 22.845765
658 1 1 2.724178 21.802313 22.763434
659 1 1 2.370658 21.889852 22.871881
660 1 1 2.103553 22.078967 23.064988
661 1 1 1.955747 22.359651 23.274202
662 1 1 1.884300 22.705625 23.134211
663 1 1 1.867079 22.996797 23.377772
664 1 1 1.555098 23.211746 23.348363
665 1 1 1.301616 23.188632 23.066206
666 1 1 0.921945 23.178299 23.078177
667 1 1 0.631935 23.292153 23.295735
668 1 1 0.563431 23.665771 23.306572
669 1 1 0.745555 23.841742 23.589883
670 1 1 0.800661 24.007944 23.927137
671 1 1 0.862233 24.369125 24.027918
672 1 1 0.644583 24.556606 24.276673
673 1 1 0.405792 24.703814 24.533011
674 1 1 0.533265 24.675924 24.889904
675 1 1 0.786316 24.536192 25.136562
676 1 1 0.717175 24.290424 25.418018
677 1 1 0.788331 24.333331 25.788822
678 1 1 0.619033 24.412338 26.119724
679 1 1 0.632203 24.780024 26.214770
680 1 1 0.502124 24.989176 26.504139
681 1 1 0.450488 25.107614 26.861499
682 1 1 0.708781 24.985244 27.111919
683 1 1 0.737886 25.247746 27.385133
684 1 1 0.922026 25.435796 27.659230
685 1 1 1.256630 25.554183 27.523493
686 1 1 1.524524 25.284982 27.536291
687 1 1 1.707391 25.010769 27.347169
688 1 1 1.515202 24.776333 27.118033
689 1 1 1.606153 24.465112 26.919868
690 1 1 1.740160 24.156350 27.096243
691 1 1 2.111383 24.180945 27.173630
692 1 1 2.476503 24.148972 27.073304
693 1 1 2.754916 23.906905 27.164349
694 1 1 2.774411 23.600464 26.940486
695 1 1 2.704632 23.703690 26.581494
696 1 1 2.614818 23.576740 26.234771
697 1 1 2.472790 23.507989 25.889082
698 1 1 2.213612 23.618231 25.633987
699 1 1 1.967238 23.905870 25.602940
700 1 1 1.823483 23.970309 25.948747
701 1 1 2.039631 24.218188 26.139106
702 1 1 2.150165 24.134738 26.492968
703 1 1 2.070962 23.769004 26.559041
704 1 1 2.159073 23.409005 26.642930
705 1 1 2.328224 23.075931 26.712570
706 1 1 2.521907 22.755112 26.775514
707 1 1 2.449238 22.590950 27.110432
708 1 1 2.498830 22.414461 27.443287
709 1 1 2.398386 22.085250 27.604319
710 1 1 2.600169 22.031436 27.921790
711 1 1 2.700737 21.665089 27.930509
712 1 1 2.822682 21.370266 28.136928
713 1 1 2.851988 21.155646 28.449145
714 1 1 2.545375 21.032240 28.636653
715 1 1 2.287379 20.858008 28.854555
716 1 1 1.909634 20.883036 28.887457
717 1 1 1.568027 20.723544 28.839844
718 1 1 1.190571 20.682615 28.855699
719 1 1 0.896500 20.554371 29.059356
720 1 1 0.526488 20.592402 28.981610
721 1 1 0.275058 20.472598 28.723095
722 1 1 0.202450 20.643534 28.391570
723 1 1 31.475023 20.561342 28.148499
724 1 1 31.511832 20.584720 28.525989
725 1 1 31.489747 20.723387 28.879094
726 1 1 31.171805 20.628549 29.064347
727 1 1 31.025486 20.288473 29.150014
728 1 1 30.807686 20.353012 29.454641
729 1 1 30.522371 20.257150 29.686602
730 1 1 30.501059 20.521730 29.958527
731 1 1 30.283612 20.552984 30.268591
732 1 1 30.430778 20.383468 30.575196
733 1 1 30.673580 20.555339 30.811643
734 1 1 30.755302 20.678481 31.161726
735 1 1 30.970090 20.942098 31.331349
736 1 1 31.214569 20.777916 0.018642
737 1 1 31.329183 20.520302 0.273395
738 1 1 31.245959 20.337415 0.595926
739 1 1 0.058100 20.263251 0.520606
740 1 1 0.435984 20.290898 0.491626
741 1 1 0.675241 20.452039 0.738991
742 1 1 0.643164 20.830659 0.734786
743 1 1 0.785110 21.068611 0.474729
744 1 1 0.535591 21.261898 0.263115
745 1 1 0.230899 21.487420 0.289628
746 1 1 0.314536 21.824539 0.135498
747 1 1 0.665415 21.834102 31.542783
748 1 1 0.583250 21.551975 31.301840
749 1 1 0.582683 21.192994 31.426471
750 1 1 0.803683 20.907551 31.545132
751 1 1 0.846386 20.539979 0.078686
752 1 1 1.122524 20.477953 0.332262
753 1 1 1.488155 20.384088 0.288639
754 1 1 1.575644 20.544558 31.508340
755 1 1 1.619181 20.673300 31.153474
756 1 1 1.481066 21.010610 31.046019
757 1 1 1.561952 21.300417 31.278117
758 1 1 1.586296 21.132653 0.065348
759 1 1 1.936313 21.280386 0.057388
760 1 1 2.100540 21.230570 0.396427
761 1 1 2.466800 21.134672 0.363907
762 1 1 2.748647 21.114771 0.618005
763 1 1 2.749634 21.052908 0.992934
764 1 1 2.819179 20.919382 1.341838
765 1 1 2.769321 21.207847 1.584123
766 1 1 2.926462 21.199239 1.930002
767 1 1 3.167433 21.261761 2.217099
768 1 1 3.095161 21.085811 2.546064
769 1 1 3.235596 20.846285 2.805498
770 1 1 3.553064 20.641221 2.845029
771 1 1 3.872970 20.440013 2.805342
772 1 1 3.908514 20.254045 2.475869
773 1 1 3.965959 19.936971 2.274462
774 1 1 3.969957 19.601829 2.095399
775 1 1 4.237488 19.640867 1.828373
776 1 1 4.550276 19.532738 1.641634
777 1 1 4.526881 19.264890 1.373101
778 1 1 4.671082 19.007440 1.133673
779 1 1 4.958753 18.759212 1.138977
780 1 1 4.877095 18.390183 1.178340
781 1 1 4.847851 18.247062 0.827539
782 1 1 4.718694 18.177209 0.477055
783 1 1 4.981684 17.972483 0.294508
784 1 1 5.186088 17.656067 0.344504
785 1 1 5.491289 17.522709 0.527448
786 1 1 5.670648 17.669528 0.828570
787 1 1 6.036147 17.746710 0.898237
788 1 1 6.135771 17.557136 1.212142
789 1 1 6.084340 17.214138 1.367406
790 1 1 6.390774 16.996119 1.421864
791 1 1 6.665457 16.809904 1.236733
792 1 1 6.933811 16.547316 1.295332
793 1 1 7.123321 16.292032 1.503456
794 1 1 6.937486 15.960831 1.516531
795 1 1 6.802260 15.613895 1.592355
796 1 1 6.841395 15.370373 1.303278
797 1 1 6.551736 15.261722 1.082615
798 1 1 6.273306 15.008869 1.136863
799 1 1 5.998759 14.782912 1.002822
800 1 1 5.693988 14.640435 0.826144
801 1 1 5.689402 14.260709 0.839821
802 1 1 5.957005 13.993203 0.804761