LAMMPS data file for polymer system

27000 atoms
26940 bonds

1 atom types
1 bond types

0.0 31.55286053533754 xlo xhi
0.0 31.55286053533754 ylo yhi
0.0 31.55286053533754 zlo zhi

Masses

1 5.65487

Atoms

1 1 1 16.237446 28.491719 19.406106
2 1 1 16.399452 28.699525 19.132298
3 1 1 16.413502 29.066062 19.033032
4 1 1 16.161218 29.233621 18.803517
5 1 1 16.140143 29.171835 18.429167
6 1 1 16.161806 29.369061 18.105080
7 1 1 16.081937 29.677691 17.898274
8 1 1 15.875399 29.803954 17.605358
9 1 1 15.555701 29.697750 17.429535
10 1 1 15.444531 29.334447 17.436745
11 1 1 15.306911 29.120018 17.154821
12 1 1 15.103610 28.813137 17.249123
13 1 1 14.799938 28.892166 17.463453
14 1 1 14.445200 28.924369 17.595832
15 1 1 14.096547 28.840703 17.469972
16 1 1 13.873950 28.942722 17.179382
17 1 1 14.059138 28.979036 16.849553
18 1 1 14.274283 29.198875 16.626431
19 1 1 14.562249 29.439440 16.566396
20 1 1 14.780667 29.566344 16.850278
21 1 1 14.886032 29.812614 17.119813
22 1 1 14.768421 29.673132 17.453148
23 1 1 14.437192 29.575809 17.611942
24 1 1 14.061369 29.598333 17.560469
25 1 1 13.822459 29.742942 17.302768
26 1 1 13.556374 29.971111 17.449526
27 1 1 13.184913 30.038226 17.405793
28 1 1 12.842511 29.914153 17.297319
29 1 1 12.522916 30.055450 17.446631
30 1 1 12.385493 30.341955 17.238232
31 1 1 12.234526 30.666561 17.365667
32 1 1 12.154025 31.037002 17.391998
33 1 1 12.222356 31.170236 17.741254
34 1 1 12.255910 31.426011 18.020276
35 1 1 12.008876 0.039117 17.783994
36 1 1 11.635098 31.523607 17.780113
37 1 1 11.431683 31.218689 17.679878
38 1 1 11.098018 31.049319 17.613682
39 1 1 10.812085 31.291064 17.548860
40 1 1 10.541967 31.078597 17.386705
41 1 1 10.497704 31.095816 17.009685
42 1 1 10.660082 30.930689 16.708411
43 1 1 10.617254 31.104560 16.373247
44 1 1 10.900933 31.278182 16.189449
45 1 1 11.215504 31.146683 16.021661
46 1 1 11.559305 31.297252 15.962245
47 1 1 11.780834 31.527751 16.167659
48 1 1 12.049156 31.401927 16.405507
49 1 1 11.927305 0.208820 16.394117
50 1 1 12.252777 0.404357 16.409380
51 1 1 12.616921 0.314919 16.471023
52 1 1 12.936748 0.518856 16.448204
53 1 1 13.225296 0.606271 16.216907
54 1 1 13.538872 0.660760 16.009299
55 1 1 13.846172 0.781393 15.821112
56 1 1 14.037764 0.571550 15.568805
57 1 1 14.220749 0.740250 15.281652
58 1 1 14.489278 0.513040 15.137889
59 1 1 14.523190 0.383684 14.782197
60 1 1 14.866824 0.450449 14.634351
61 1 1 15.189345 0.305870 14.494791
62 1 1 15.319540 0.323126 14.138208
63 1 1 15.501109 0.353911 13.805816
64 1 1 15.394224 0.680751 13.644102
65 1 1 15.385143 1.053312 13.718372
66 1 1 15.244939 1.399309 13.647458
67 1 1 15.534635 1.644888 13.634501
68 1 1 15.609245 1.983788 13.789356
69 1 1 15.684636 2.349603 13.719392
70 1 1 15.897688 2.512841 13.450390
71 1 1 16.075587 2.839885 13.374268
72 1 1 16.267213 3.161428 13.439763
73 1 1 16.128100 3.470319 13.611910
74 1 1 15.882435 3.340102 13.870931
75 1 1 15.835586 3.520115 14.202293
76 1 1 15.527607 3.741346 14.177686
77 1 1 15.219769 3.846946 13.981512
78 1 1 14.928179 3.720862 13.772998
79 1 1 14.560729 3.667339 13.692276
80 1 1 14.277577 3.746102 13.933152
81 1 1 14.119363 4.079261 14.024658
82 1 1 13.868804 4.243403 13.790827
83 1 1 13.970476 4.524006 13.555614
84 1 1 14.228030 4.500423 13.277209
85 1 1 14.500683 4.601539 13.032595
86 1 1 14.424477 4.684177 12.669602
87 1 1 14.478720 4.357614 12.483015
88 1 1 14.758652 4.203510 12.277371
89 1 1 15.043204 4.448374 12.218447
90 1 1 15.345659 4.618787 12.063914
91 1 1 15.505158 4.479479 11.748394
92 1 1 15.621991 4.147720 11.604567
93 1 1 15.536496 3.792076 11.707561
94 1 1 15.308691 3.791004 12.011705
95 1 1 15.036235 3.531458 12.064653
96 1 1 15.015588 3.415561 12.425959
97 1 1 15.369385 3.338028 12.540923
98 1 1 15.573550 3.658479 12.546214
99 1 1 15.472522 4.023063 12.581873
100 1 1 15.371543 4.340844 12.764133
101 1 1 15.273822 4.421327 13.122425
102 1 1 15.063247 4.589564 13.390295
103 1 1 14.801955 4.481165 13.644019
104 1 1 14.831212 4.313054 13.983552
105 1 1 15.002256 4.505950 14.262721
106 1 1 15.321602 4.421488 14.450562
107 1 1 15.493330 4.251475 14.743828
108 1 1 15.337609 4.202574 15.086989
109 1 1 15.139091 3.977796 15.320368
110 1 1 15.196249 4.074301 15.683438
111 1 1 15.525671 4.062411 15.872488
112 1 1 15.835758 3.846579 15.913259
113 1 1 15.928351 3.874372 16.280756
114 1 1 16.206780 3.949421 16.528233
115 1 1 16.431242 3.967372 16.834329
116 1 1 16.543555 4.051732 17.187414
117 1 1 16.492490 3.846024 17.502814
118 1 1 16.771091 3.755889 17.745006
119 1 1 17.111687 3.598024 17.686071
120 1 1 17.216211 3.328875 17.439022
121 1 1 17.516613 3.097684 17.465661
122 1 1 17.887633 3.060955 17.539110
123 1 1 17.980233 2.713432 17.661798
124 1 1 17.988802 2.450298 17.387778
125 1 1 17.866322 2.175436 17.155723
126 1 1 17.636175 2.021910 16.895219
127 1 1 17.299863 2.196510 16.866776
128 1 1 17.199907 2.375357 17.186811
129 1 1 16.845069 2.510006 17.167831
130 1 1 16.748704 2.868516 17.086690
131 1 1 16.417322 3.054482 17.088204
132 1 1 16.163816 2.877909 16.866944
133 1 1 15.995912 3.147931 16.658866
134 1 1 15.642376 3.272430 16.721419
135 1 1 15.370315 3.007564 16.736539
136 1 1 15.034400 2.829910 16.736725
137 1 1 14.677507 2.923987 16.827147
138 1 1 14.403810 2.800609 16.594193
139 1 1 14.286995 2.951426 16.265546
140 1 1 14.335049 2.867015 15.898170
141 1 1 14.534389 2.543503 15.899963
142 1 1 14.825774 2.362083 16.063003
143 1 1 14.938384 2.291000 16.418904
144 1 1 14.712068 2.216687 16.714976
145 1 1 14.466585 2.149892 16.997246
146 1 1 14.204669 2.394192 17.124202
147 1 1 14.283439 2.663599 17.380356
148 1 1 14.311363 2.777668 17.741755
149 1 1 14.637522 2.692680 17.917246
150 1 1 14.888749 2.425988 18.018044
151 1 1 14.910441 2.083561 17.854724
152 1 1 14.767340 1.733371 17.890630
153 1 1 14.491305 1.510079 18.026074
154 1 1 14.188100 1.580953 17.808259
155 1 1 13.810386 1.548625 17.782043
156 1 1 13.528862 1.374388 17.595535
157 1 1 13.483285 1.307440 17.224266
158 1 1 13.471982 1.355646 16.847505
159 1 1 13.234617 1.642127 16.770132
160 1 1 12.944301 1.773734 16.563259
161 1 1 12.632588 1.797289 16.779315
162 1 1 12.520402 1.696646 17.128149
163 1 1 12.332793 1.705705 17.458483
164 1 1 12.040535 1.837912 17.662215
165 1 1 11.742540 1.909691 17.886819
166 1 1 11.390524 1.773687 17.931401
167 1 1 11.082490 1.897585 17.746564
168 1 1 10.814343 2.141088 17.631659
169 1 1 10.488876 2.335194 17.603466
170 1 1 10.269860 2.386672 17.909705
171 1 1 10.091366 2.431461 18.242171
172 1 1 9.916895 2.584380 18.543129
173 1 1 9.619436 2.818796 18.574229
174 1 1 9.420785 3.105658 18.423737
175 1 1 9.066015 3.099307 18.287729
176 1 1 8.842498 2.826844 18.429869
177 1 1 8.466473 2.797627 18.383479
178 1 1 8.105957 2.881817 18.469152
179 1 1 7.859482 3.055007 18.700788
180 1 1 7.639193 3.330530 18.842069
181 1 1 7.558021 3.312818 19.212876
182 1 1 7.332408 3.240944 19.510084
183 1 1 7.031313 3.047489 19.382345
184 1 1 6.801698 3.199812 19.120669
185 1 1 6.589195 3.198232 18.805645
186 1 1 6.465448 3.299072 18.460800
187 1 1 6.470095 3.198142 18.094479
188 1 1 6.489906 3.265808 17.721077
189 1 1 6.501115 3.274073 17.341332
190 1 1 6.501973 3.177406 16.973835
191 1 1 6.543859 3.211174 16.597663
192 1 1 6.718366 2.973387 16.358070
193 1 1 7.021935 2.998754 16.130908
194 1 1 7.377506 3.104887 16.212792
195 1 1 7.688225 3.193427 16.012756
196 1 1 7.878882 3.109385 15.694972
197 1 1 8.182344 3.338059 15.699339
198 1 1 8.452686 3.405153 15.440856
199 1 1 8.453420 3.504712 15.074130
200 1 1 8.274917 3.781500 14.884591
201 1 1 8.047463 3.799801 14.580733
202 1 1 7.929964 3.788262 14.219539
203 1 1 7.626206 3.835818 13.996224
204 1 1 7.368102 4.098230 13.901764
205 1 1 7.196605 4.203774 14.224020
206 1 1 7.037458 3.984447 14.490418
207 1 1 7.080853 3.624310 14.603636
208 1 1 7.026285 3.394837 14.305702
209 1 1 6.821323 3.081238 14.242092
210 1 1 6.609324 2.873470 14.479344
211 1 1 6.361717 2.592901 14.545467
212 1 1 6.261034 2.228287 14.581788
213 1 1 6.021320 1.956772 14.696753
214 1 1 5.972833 1.580097 14.709601
215 1 1 5.667238 1.391987 14.584595
216 1 1 5.371773 1.586660 14.723168
217 1 1 5.007832 1.676357 14.785628
218 1 1 4.791844 1.394434 14.650465
219 1 1 4.833619 1.083560 14.435961
220 1 1 5.058536 0.914636 14.180466
221 1 1 5.230141 0.931974 13.841864
222 1 1 5.594841 1.035414 13.815511
223 1 1 5.969989 0.975398 13.807643
224 1 1 6.131709 0.755314 13.543429
225 1 1 6.470467 0.588133 13.584589
226 1 1 6.799466 0.753132 13.679114
227 1 1 7.016146 0.541361 13.908466
228 1 1 6.886946 0.185550 13.941722
229 1 1 6.516954 0.099606 13.930808
230 1 1 6.256679 31.375868 13.943050
231 1 1 6.466488 31.458666 14.248868
232 1 1 6.682241 31.162298 14.348953
233 1 1 7.046062 31.254127 14.288937
234 1 1 7.205890 31.319349 13.950409
235 1 1 7.580264 31.376172 13.982272
236 1 1 7.815938 31.081198 13.939287
237 1 1 8.059233 30.806981 13.839223
238 1 1 7.965220 30.490147 13.651665
239 1 1 7.640043 30.441963 13.461040
240 1 1 7.312916 30.251755 13.426267
241 1 1 7.239341 29.879142 13.414188
242 1 1 7.250528 29.531753 13.260580
243 1 1 6.958874 29.392354 13.060815
244 1 1 6.661111 29.206693 13.206646
245 1 1 6.285773 29.237430 13.257413
246 1 1 6.199658 29.050175 13.576662
247 1 1 6.286354 28.681179 13.603594
248 1 1 6.485586 28.644742 13.925120
249 1 1 6.758221 28.816415 14.126610
250 1 1 6.878163 28.687877 14.463496
251 1 1 7.175756 28.570251 14.668441
252 1 1 7.466621 28.328077 14.634536
253 1 1 7.772651 28.485254 14.795908
254 1 1 8.093466 28.531648 14.994214
255 1 1 8.165665 28.653925 15.346685
256 1 1 8.254377 28.533612 15.696048
257 1 1 7.955299 28.334902 15.820411
258 1 1 7.656648 28.291798 16.051388
259 1 1 7.560119 28.175127 16.399913
260 1 1 7.415113 28.477093 16.579328
261 1 1 7.424490 28.727198 16.865264
262 1 1 7.650056 28.612113 17.148593
263 1 1 7.443742 28.475610 17.437040
264 1 1 7.155198 28.455989 17.683529
265 1 1 7.146384 28.516850 18.058520
266 1 1 7.287534 28.656926 18.382334
267 1 1 7.272362 28.854248 18.706732
268 1 1 7.528591 29.063911 18.893249
269 1 1 7.857113 28.964919 19.056571
270 1 1 8.182710 28.813557 19.180973
271 1 1 8.348632 28.499674 19.316424
272 1 1 8.568308 28.191748 19.280038
273 1 1 8.548502 27.966567 18.974585
274 1 1 8.195271 27.932582 18.838670
275 1 1 7.841299 28.065772 18.801739
276 1 1 7.795632 28.336734 18.539263
277 1 1 7.713146 28.203524 18.193068
278 1 1 7.749854 27.954024 17.908810
279 1 1 7.806356 27.585878 17.833473
280 1 1 8.113329 27.401111 17.706866
281 1 1 8.371354 27.488839 17.442052
282 1 1 8.660930 27.704139 17.322921
283 1 1 8.820163 28.023122 17.191412
284 1 1 8.900273 28.358638 17.350820
285 1 1 9.167513 28.627626 17.325749
286 1 1 9.408696 28.872293 17.163365
287 1 1 9.541048 29.038972 16.848562
288 1 1 9.579583 29.415393 16.883525
289 1 1 9.384489 29.725550 16.984229
290 1 1 9.107271 29.781833 17.237965
291 1 1 9.141567 30.081386 17.469249
292 1 1 9.001199 29.977867 17.806859
293 1 1 9.161093 30.189743 18.078783
294 1 1 8.867702 30.348821 18.260486
295 1 1 8.866699 30.341538 18.640415
296 1 1 9.149443 30.165235 18.823097
297 1 1 9.461168 30.094297 19.028511
298 1 1 9.682097 30.398406 18.972762
299 1 1 9.726867 30.657029 19.247552
300 1 1 9.687836 31.032008 19.295169
301 1 1 9.841689 31.244152 19.019989
302 1 1 10.042734 0.011234 18.979776
303 1 1 9.893816 0.176018 19.288110
304 1 1 10.124270 0.328613 19.548888
305 1 1 10.218998 31.514333 19.523701
306 1 1 10.380484 31.483310 19.181123
307 1 1 10.478470 31.459781 18.814728
308 1 1 10.715974 0.127575 19.012979
309 1 1 10.931025 0.407660 18.872603
310 1 1 11.065947 0.597449 18.572310
311 1 1 11.411343 0.755524 18.583002
312 1 1 11.658836 1.018390 18.464477
313 1 1 12.025048 0.926434 18.421671
314 1 1 12.208673 0.707427 18.672108
315 1 1 12.334783 0.410133 18.872388
316 1 1 12.347235 0.113474 19.109534
317 1 1 12.465147 31.439802 18.828145
318 1 1 12.741896 31.540128 18.587843
319 1 1 12.952506 0.286438 18.690508
320 1 1 12.945873 0.160655 18.331991
321 1 1 12.759730 0.379435 18.083222
322 1 1 12.602898 0.725117 18.065685
323 1 1 12.619316 1.040989 18.276291
324 1 1 12.773525 1.128549 18.612376
325 1 1 12.746613 1.029664 18.978296
326 1 1 12.703314 1.139045 19.339629
327 1 1 13.021645 1.170143 19.544808
328 1 1 13.047955 1.359252 19.873359
329 1 1 12.760657 1.434076 20.110554
330 1 1 12.776052 1.730305 20.348065
331 1 1 12.642671 1.602596 20.680179
332 1 1 12.265392 1.561588 20.660724
333 1 1 12.191444 1.216799 20.519118
334 1 1 11.812685 1.186945 20.526177
335 1 1 11.495195 1.180621 20.317466
336 1 1 11.327495 1.258039 19.985376
337 1 1 11.127578 1.012082 19.775763
338 1 1 11.185549 1.099417 19.410507
339 1 1 11.042458 1.069024 19.059791
340 1 1 10.889838 1.259915 18.768815
341 1 1 10.540822 1.400960 18.716904
342 1 1 10.318472 1.601902 18.483276
343 1 1 9.954852 1.553620 18.582521
344 1 1 9.788545 1.884482 18.667798
345 1 1 9.480716 1.839438 18.886000
346 1 1 9.380756 1.867655 19.251530
347 1 1 9.707259 1.878990 19.445610
348 1 1 9.745733 2.034450 19.790214
349 1 1 9.941894 1.857444 20.063326
350 1 1 10.242633 2.009380 20.239029
351 1 1 10.246266 2.122221 20.601870
352 1 1 9.965851 2.047849 20.847301
353 1 1 9.654375 2.254319 20.778358
354 1 1 9.544322 2.323948 20.421370
355 1 1 9.257096 2.258509 20.181331
356 1 1 8.917601 2.407581 20.264522
357 1 1 8.561227 2.277987 20.239970
358 1 1 8.282747 2.161615 20.009089
359 1 1 8.279350 1.782873 19.978379
360 1 1 8.233424 1.436355 20.127430
361 1 1 7.949851 1.294794 20.337065
362 1 1 7.618242 1.287113 20.522474
363 1 1 7.391078 1.374778 20.814213
364 1 1 7.249352 1.215451 21.128742
365 1 1 6.971189 1.016459 21.294354
366 1 1 6.780826 1.104186 21.611318
367 1 1 6.577217 1.347006 21.821036
368 1 1 6.433553 1.643205 21.631230
369 1 1 6.169929 1.916308 21.649045
370 1 1 5.992285 2.175173 21.434962
371 1 1 5.881348 2.503830 21.279791
372 1 1 5.965224 2.868557 21.345661
373 1 1 5.678150 3.078523 21.479463
374 1 1 5.419749 3.236476 21.708983
375 1 1 5.438022 3.615896 21.719312
376 1 1 5.397204 3.981716 21.813705
377 1 1 5.383476 4.123432 22.166023
378 1 1 5.259555 4.017872 22.509390
379 1 1 5.069400 4.083937 22.831689
380 1 1 4.830240 3.790731 22.866794
381 1 1 4.556904 3.777553 23.130448
382 1 1 4.203348 3.651469 23.189618
383 1 1 3.982614 3.696094 23.495699
384 1 1 3.890045 3.861541 23.825029
385 1 1 4.176411 3.851624 24.074621
386 1 1 4.433651 3.620562 24.232220
387 1 1 4.657112 3.407599 24.010607
388 1 1 4.548474 3.047822 24.066806
389 1 1 4.677644 2.706441 24.172515
390 1 1 4.597386 2.371444 24.332938
391 1 1 4.426496 2.412371 24.669868
392 1 1 4.352455 2.103184 24.878005
393 1 1 4.628343 2.038407 25.131165
394 1 1 4.953724 2.160765 24.977688
395 1 1 5.259014 2.221281 24.759661
396 1 1 5.582557 2.153689 24.572174
397 1 1 5.548807 1.872977 24.318280
398 1 1 5.189831 1.876855 24.193696
399 1 1 4.865908 1.783094 24.018530
400 1 1 4.629410 1.539056 23.848491
401 1 1 4.752201 1.181163 23.883639
402 1 1 5.041554 1.097653 24.115374
403 1 1 5.051871 0.921707 24.452029
404 1 1 4.953428 1.089216 24.778601
405 1 1 4.810491 1.289712 25.068032
406 1 1 4.579643 1.116493 25.315225
407 1 1 4.436240 0.767326 25.271426
408 1 1 4.382169 0.674708 24.906874
409 1 1 4.525525 0.336445 24.809780
410 1 1 4.447615 0.058069 24.563129
411 1 1 4.704841 31.431986 24.348154
412 1 1 4.358943 31.275712 24.366412
413 1 1 4.341667 30.998144 24.625367
414 1 1 4.458017 30.791246 24.922109
415 1 1 4.409375 30.600184 25.246962
416 1 1 4.408899 30.717126 25.608520
417 1 1 4.613497 30.964644 25.811681
418 1 1 4.572442 30.956604 26.189371
419 1 1 4.220521 30.849242 26.284372
420 1 1 3.943931 31.014264 26.082715
421 1 1 3.604238 31.157892 26.174254
422 1 1 3.509093 31.469449 26.369907
423 1 1 3.661986 0.213003 26.552012
424 1 1 4.002977 0.060580 26.621961
425 1 1 4.292961 0.279939 26.511548
426 1 1 4.175657 31.526857 26.319091
427 1 1 4.329176 31.493792 25.973059
428 1 1 4.519973 31.536606 25.647232
429 1 1 4.822352 0.012678 25.875552
430 1 1 5.147508 31.381703 25.945398
431 1 1 5.376583 31.109215 25.812450
432 1 1 5.454425 31.166920 25.445012
433 1 1 5.574433 30.833736 25.307222
434 1 1 5.435094 30.549498 25.097000
435 1 1 5.126545 30.339562 25.025411
436 1 1 5.188027 29.971066 24.955908
437 1 1 5.240213 29.784000 24.629285
438 1 1 5.614462 29.729235 24.592697
439 1 1 5.955180 29.883218 24.524875
440 1 1 6.229271 29.997493 24.761973
441 1 1 6.588029 29.925086 24.659748
442 1 1 6.911629 30.036336 24.494501
443 1 1 7.156932 30.268112 24.319840
444 1 1 7.520328 30.367243 24.370004
445 1 1 7.761641 30.486688 24.638147
446 1 1 7.636518 30.378299 24.980194
447 1 1 7.431067 30.406215 25.298644
448 1 1 7.091300 30.241062 25.257620
449 1 1 6.969438 29.900440 25.141318
450 1 1 6.739843 29.640056 25.295870
451 1 1 0.374374 14.108709 14.550582
452 1 1 0.359341 14.002895 14.915243
453 1 1 0.448651 13.640353 14.985860
454 1 1 0.728078 13.382945 14.993692
455 1 1 1.061407 13.528545 15.103658
456 1 1 1.325800 13.750309 15.262771
457 1 1 1.646409 13.728001 15.465533
458 1 1 2.004895 13.760354 15.343709
459 1 1 2.079742 13.910721 15.002845
460 1 1 1.758998 13.921305 14.799347
461 1 1 1.856589 13.988895 14.438366
462 1 1 2.187278 13.936614 14.258612
463 1 1 2.150034 13.631172 14.035638
464 1 1 1.993074 13.563247 13.696301
465 1 1 1.974852 13.808673 13.406760
466 1 1 1.858174 14.162737 13.333106
467 1 1 1.815678 14.510491 13.480284
468 1 1 1.726889 14.811956 13.693909
469 1 1 1.621670 15.161666 13.798940
470 1 1 1.917967 15.347831 13.947099
471 1 1 1.886100 15.719548 14.019282
472 1 1 1.543123 15.883125 14.016162
473 1 1 1.380031 16.027034 13.704568
474 1 1 1.584620 16.255390 13.480075
475 1 1 1.516123 16.557876 13.260507
476 1 1 1.270044 16.834779 13.175830
477 1 1 1.143014 16.766687 12.824223
478 1 1 1.213662 17.049810 12.580810
479 1 1 1.042401 17.306808 12.359402
480 1 1 0.856421 17.255909 12.031956
481 1 1 0.620293 16.979481 11.921362
482 1 1 0.575836 16.602601 11.940992
483 1 1 0.386072 16.341637 12.141709
484 1 1 0.469362 15.979737 12.061140
485 1 1 0.237958 15.688624 11.983000
486 1 1 0.167190 15.699473 11.609806
487 1 1 0.418288 15.868725 11.380234
488 1 1 0.496072 15.609790 11.113209
489 1 1 0.816967 15.422091 11.191919
490 1 1 1.105402 15.255008 11.009467
491 1 1 1.126642 14.958545 10.772700
492 1 1 1.016860 14.648042 10.962266
493 1 1 0.717076 14.512336 10.772231
494 1 1 0.433847 14.362465 10.567976
495 1 1 0.100857 14.473350 10.422298
496 1 1 31.485930 14.668900 10.701596
497 1 1 31.237644 14.460653 10.900059
498 1 1 31.054923 14.143254 11.001403
499 1 1 31.032315 13.787489 10.869797
500 1 1 31.258988 13.514624 11.006048
501 1 1 31.446241 13.242290 10.818510
502 1 1 0.070643 13.558696 10.931936
503 1 1 0.240914 13.895096 10.979297
504 1 1 0.218920 14.219240 11.176393
505 1 1 31.531869 14.297972 11.460372
506 1 1 31.496211 14.664687 11.553367
507 1 1 0.062093 14.446856 11.841203
508 1 1 0.271771 14.137177 11.908539
509 1 1 0.326347 13.781976 11.785034
510 1 1 0.473838 13.455773 11.912463
511 1 1 0.630191 13.166203 11.722455
512 1 1 0.865952 12.874399 11.783010
513 1 1 0.921139 12.510690 11.878245
514 1 1 1.110408 12.208248 11.747454
515 1 1 1.413706 11.999440 11.653593
516 1 1 1.670312 11.912718 11.387074
517 1 1 1.934302 12.185896 11.396206
518 1 1 1.913511 12.533233 11.243481
519 1 1 1.816378 12.766997 11.526888
520 1 1 1.543117 12.885418 11.762907
521 1 1 1.449329 13.211185 11.934603
522 1 1 1.495348 13.573485 12.039585
523 1 1 1.184906 13.707582 12.212916
524 1 1 1.014208 14.046949 12.222516
525 1 1 1.276001 14.322134 12.210779
526 1 1 1.499961 14.610616 12.105802
527 1 1 1.445306 14.985804 12.131238
528 1 1 1.352288 15.166418 11.810106
529 1 1 1.594142 15.209474 11.520188
530 1 1 1.940210 15.076720 11.603933
531 1 1 2.158148 14.834100 11.798968
532 1 1 2.522932 14.838038 11.692587
533 1 1 2.878791 14.731758 11.612159
534 1 1 3.031697 14.448440 11.814028
535 1 1 3.094852 14.221400 12.112129
536 1 1 2.992523 13.874619 12.229055
537 1 1 2.740100 13.590821 12.240920
538 1 1 2.442259 13.568900 12.005952
539 1 1 2.270789 13.350424 11.746594
540 1 1 2.379304 13.252475 11.395837
541 1 1 2.484816 12.895818 11.317974
542 1 1 2.701135 12.672262 11.536215
543 1 1 2.993346 12.448193 11.442377
544 1 1 3.254591 12.252390 11.247924
545 1 1 3.622800 12.218680 11.335595
546 1 1 3.743532 12.559917 11.451270
547 1 1 3.739590 12.922546 11.564781
548 1 1 3.940111 13.186022 11.378308
549 1 1 4.156824 13.224290 11.068516
550 1 1 4.195267 12.878963 10.914661
551 1 1 4.442050 12.866785 10.625957
552 1 1 4.655402 13.157683 10.506544
553 1 1 4.792502 13.472514 10.343802
554 1 1 5.006363 13.749002 10.194746
555 1 1 5.371397 13.819700 10.273177
556 1 1 5.581185 13.649423 10.005978
557 1 1 5.940468 13.720609 10.107213
558 1 1 6.275398 13.624724 10.258962
559 1 1 6.650328 13.589538 10.208078
560 1 1 6.956282 13.704833 10.401726
561 1 1 7.170473 14.013524 10.344871
562 1 1 7.358456 14.327633 10.446840
563 1 1 7.730244 14.397067 10.410060
564 1 1 7.987317 14.459379 10.682879
565 1 1 8.309156 14.586847 10.526124
566 1 1 8.595687 14.337540 10.514046
567 1 1 8.906826 14.141667 10.417991
568 1 1 9.240579 14.318127 10.374734
569 1 1 9.415431 14.472780 10.674582
570 1 1 9.374296 14.296012 11.008440
571 1 1 9.108479 14.024566 11.000792
572 1 1 8.816737 13.785371 11.046316
573 1 1 8.603953 13.514733 11.207182
574 1 1 8.308752 13.278174 11.243188
575 1 1 8.303302 13.009680 11.512039
576 1 1 8.178949 12.657096 11.580016
577 1 1 8.434678 12.392984 11.483850
578 1 1 8.682970 12.228469 11.247872
579 1 1 8.971140 12.438912 11.117213
580 1 1 9.292579 12.236896 11.100894
581 1 1 9.527271 12.252429 10.802435
582 1 1 9.758940 12.553521 10.811019
583 1 1 10.081672 12.718056 10.696249
584 1 1 10.288251 12.612197 10.395385
585 1 1 10.568520 12.366815 10.470462
586 1 1 10.414393 12.019770 10.456144
587 1 1 10.166418 11.889931 10.199142
588 1 1 9.991163 11.564633 10.287837
589 1 1 9.699512 11.321133 10.280966
590 1 1 9.671347 11.057366 10.553058
591 1 1 9.937341 10.897867 10.772619
592 1 1 10.243303 11.077327 10.908935
593 1 1 10.484242 11.347660 10.793748
594 1 1 10.794720 11.565357 10.769021
595 1 1 11.104501 11.778234 10.713173
596 1 1 11.193268 12.141764 10.779251
597 1 1 11.305333 12.194976 11.138431
598 1 1 11.583101 12.033108 11.341023
599 1 1 11.749693 11.691688 11.332115
600 1 1 11.942119 11.620728 11.652016
601 1 1 11.813276 11.628700 12.009417
602 1 1 11.469487 11.486545 12.086883
603 1 1 11.165216 11.454344 11.861533
604 1 1 10.967836 11.313725 11.568844
605 1 1 11.015906 10.956117 11.449654
606 1 1 11.263686 10.687144 11.552896
607 1 1 11.437917 10.695051 11.890507
608 1 1 11.647782 10.416844 12.042022
609 1 1 11.673063 10.145969 11.776714
610 1 1 11.969685 10.049282 11.559766
611 1 1 12.235459 9.885985 11.342744
612 1 1 12.501358 9.701140 11.143922
613 1 1 12.664675 9.787787 10.811928
614 1 1 12.735538 9.484333 10.594456
615 1 1 12.409409 9.289324 10.591091
616 1 1 12.093023 9.357886 10.392096
617 1 1 12.027737 9.399055 10.020016
618 1 1 11.972283 9.771095 9.966065
619 1 1 12.136381 10.025289 9.736158
620 1 1 12.457495 9.941640 9.550986
621 1 1 12.590031 9.940478 9.194850
622 1 1 12.357335 9.782946 8.939045
623 1 1 12.192436 9.933442 8.631541
624 1 1 12.135250 10.289163 8.510742
625 1 1 11.886403 10.438248 8.265286
626 1 1 11.793232 10.162678 8.020785
627 1 1 11.758592 9.815177 8.170594
628 1 1 11.835346 9.445966 8.217409
629 1 1 11.666669 9.137605 8.361846
630 1 1 11.647833 8.981495 8.707786
631 1 1 11.609501 8.607299 8.761708
632 1 1 11.871393 8.333084 8.736836
633 1 1 11.670860 8.010552 8.724188
634 1 1 11.419182 7.843067 8.493956
635 1 1 11.094268 7.808806 8.299901
636 1 1 11.021526 7.575220 8.009133
637 1 1 10.727651 7.335805 8.035918
638 1 1 10.671996 7.039414 8.267122
639 1 1 10.799154 6.729499 8.446518
640 1 1 11.049211 6.743977 8.732284
641 1 1 11.068555 7.070721 8.925324
642 1 1 10.788694 7.321080 8.983619
643 1 1 10.934315 7.578292 9.222442
644 1 1 10.868171 7.936846 9.329512
645 1 1 10.905090 8.304144 9.239350
646 1 1 11.011280 8.563822 8.983047
647 1 1 10.761900 8.718067 8.741348
648 1 1 10.436221 8.553307 8.635581
649 1 1 10.078655 8.538782 8.763391
650 1 1 9.780323 8.350705 8.904901
651 1 1 9.435106 8.315253 8.750083
652 1 1 9.454562 8.470440 8.403761
653 1 1 9.654571 8.378022 8.094156
654 1 1 9.804157 8.572978 7.804300
655 1 1 10.114358 8.460851 7.615613
656 1 1 10.266119 8.184534 7.827787
657 1 1 10.456956 7.907556 8.004604
658 1 1 10.293438 7.717273 8.290006
659 1 1 10.030732 7.451134 8.357500
660 1 1 9.653844 7.413145 8.387709
661 1 1 9.465960 7.408507 8.057439
662 1 1 9.407671 7.772232 7.964132
663 1 1 9.526096 7.814067 7.605488
664 1 1 9.611575 8.093961 7.363098
665 1 1 9.393159 8.291684 7.123099
666 1 1 9.074004 8.496443 7.147881
667 1 1 9.062764 8.738519 6.855183
668 1 1 8.735953 8.698508 6.665463
669 1 1 8.390683 8.782531 6.800105
670 1 1 8.250115 9.034244 7.047657
671 1 1 8.309441 9.037542 7.422983
672 1 1 8.235312 8.849779 7.744930
673 1 1 8.132000 8.644007 8.047228
674 1 1 7.879052 8.847434 8.244800
675 1 1 7.664719 8.978856 8.529738
676 1 1 7.542966 9.285086 8.718946
677 1 1 7.167341 9.306704 8.772226
678 1 1 6.905534 9.428339 9.019333
679 1 1 6.535184 9.386820 9.093609
680 1 1 6.197106 9.314177 9.251173
681 1 1 5.915442 9.149077 9.445613
682 1 1 5.573607 9.312695 9.473513
683 1 1 5.540846 9.652560 9.640302
684 1 1 5.861179 9.817733 9.760739
685 1 1 6.021604 9.709409 10.087740
686 1 1 6.106401 9.705390 10.458136
687 1 1 6.308619 9.391127 10.527033
688 1 1 6.266923 9.068655 10.330378
689 1 1 6.201396 8.826379 10.045056
690 1 1 6.177884 8.500821 9.850482
691 1 1 6.189797 8.148166 9.991525
692 1 1 5.979652 7.843938 9.903866
693 1 1 5.701608 7.687097 9.697729
694 1 1 5.338529 7.616724 9.610430
695 1 1 5.176097 7.388817 9.867480
696 1 1 5.421943 7.168023 10.055123
697 1 1 5.756318 7.010670 9.966620
698 1 1 6.096963 6.881747 9.858267
699 1 1 6.474420 6.921238 9.839115
700 1 1 6.685860 6.655516 10.009657
701 1 1 6.657299 6.671593 10.388241
702 1 1 6.349680 6.717408 10.606578
703 1 1 6.050359 6.678132 10.837370
704 1 1 6.007661 6.726860 11.211806
705 1 1 6.095613 7.086558 11.297137
706 1 1 6.280212 7.186748 11.613815
707 1 1 6.573274 6.985472 11.747988
708 1 1 6.853343 6.733494 11.698309
709 1 1 7.116338 6.509977 11.857288
710 1 1 7.449620 6.544201 11.677977
711 1 1 7.732286 6.685952 11.467249
712 1 1 7.699467 6.743351 11.093046
713 1 1 7.410585 6.557115 10.930987
714 1 1 7.527666 6.202158 10.862444
715 1 1 7.833469 6.071576 10.678507
716 1 1 8.172123 5.927552 10.583793
717 1 1 8.368290 6.146785 10.343262
718 1 1 8.517952 6.360384 10.066899
719 1 1 8.445129 6.730937 10.109180
720 1 1 8.326176 7.088177 10.057896
721 1 1 8.093721 7.372598 10.155204
722 1 1 8.055341 7.610871 10.448722
723 1 1 7.944446 7.426332 10.761847
724 1 1 8.193780 7.495098 11.040242
725 1 1 8.396802 7.295728 11.292103
726 1 1 8.227482 7.114974 11.580303
727 1 1 7.948002 7.113195 11.837767
728 1 1 7.695885 7.120318 12.121996
729 1 1 7.419839 7.241728 12.353206
730 1 1 7.573588 7.267160 12.699781
731 1 1 7.713117 7.493306 12.971424
732 1 1 7.955156 7.605898 13.241869
733 1 1 8.146603 7.403966 13.500658
734 1 1 8.124636 7.338474 13.874326
735 1 1 8.205358 7.032009 14.084000
736 1 1 8.154027 6.945509 14.450447
737 1 1 8.117455 6.569034 14.486903
738 1 1 8.438948 6.371364 14.531273
739 1 1 8.444057 6.065540 14.305784
740 1 1 8.127741 5.966453 14.119971
741 1 1 7.837461 6.110096 13.921215
742 1 1 7.861582 6.350584 13.627985
743 1 1 8.122541 6.614965 13.547966
744 1 1 8.114966 6.790746 13.211152
745 1 1 8.359712 6.856101 12.927906
746 1 1 8.708480 6.918312 13.065350
747 1 1 8.947881 7.130753 13.270181
748 1 1 9.295438 7.022347 13.161316
749 1 1 9.659985 6.918620 13.188629
750 1 1 9.839011 7.055489 12.882661
751 1 1 10.033622 6.830081 12.646614
752 1 1 9.882805 6.742992 12.308872
753 1 1 9.672790 7.021259 12.157673
754 1 1 9.727105 7.246683 11.856618
755 1 1 9.859334 7.242856 11.500387
756 1 1 10.216553 7.256958 11.371561
757 1 1 10.569364 7.144501 11.286252
758 1 1 10.566373 6.767492 11.333740
759 1 1 10.438915 6.683369 11.681702
760 1 1 10.153305 6.439932 11.621992
761 1 1 9.909026 6.188217 11.475817
762 1 1 9.580549 6.229756 11.662303
763 1 1 9.211958 6.166141 11.595268
764 1 1 9.023018 6.155015 11.265756
765 1 1 8.708246 5.947732 11.217257
766 1 1 8.348335 5.835252 11.170219
767 1 1 8.237639 5.509530 11.331624
768 1 1 8.286819 5.182442 11.144556
769 1 1 8.128336 4.910792 11.357838
770 1 1 8.292465 4.574380 11.292351
771 1 1 8.469311 4.318765 11.073750
772 1 1 8.521982 4.440888 10.717784
773 1 1 8.322453 4.469243 10.395628
774 1 1 8.129500 4.366959 10.084650
775 1 1 7.958739 4.680832 9.955329
776 1 1 7.689065 4.564944 9.713987
777 1 1 7.357996 4.378576 9.721727
778 1 1 7.114930 4.415134 10.011524
779 1 1 7.123575 4.227109 10.341633
780 1 1 6.824204 4.313977 10.558960
781 1 1 6.494608 4.402827 10.725911
782 1 1 6.155559 4.411890 10.554553
783 1 1 6.178847 4.381373 10.176497
784 1 1 6.468748 4.327814 9.936729
785 1 1 6.468704 3.966908 9.817789
786 1 1 6.139234 3.793313 9.742194
787 1 1 6.070015 3.829939 9.370351
788 1 1 5.717915 3.802771 9.230038
789 1 1 5.698009 3.483058 9.025619
790 1 1 5.623050 3.145183 8.868705
791 1 1 5.417992 3.207527 8.554914
792 1 1 5.038539 3.200948 8.535628
793 1 1 4.696626 3.109199 8.673750
794 1 1 4.353316 3.040198 8.821320
795 1 1 3.982270 2.977276 8.873911
796 1 1 3.658825 2.867900 8.707117
797 1 1 3.373443 3.032722 8.896302
798 1 1 3.015213 3.154152 8.932717
799 1 1 2.839636 3.055497 9.254959
800 1 1 2.499380 2.939889 9.378491
801 1 1 2.303716 2.619098 9.435142
802 1 1 2.021205 2.554602 9.680962
803 1 1 2.069573 2.237617 9.884877
804 1 1 2.179283 2.281061 10.246092
805 1 1 2.125339 2.542343 10.516688
806 1 1 2.418820 2.612595 10.747628
807 1 1 2.791692 2.664483 10.799340
808 1 1 3.103072 2.727797 10.590930
809 1 1 3.450168 2.651778 10.725634
810 1 1 3.721931 2.874785 10.869902
811 1 1 3.883036 3.116025 11.115357
812 1 1 3.949194 3.262500 11.459695
813 1 1 4.146022 3.299825 11.782597
814 1 1 4.333005 2.991585 11.902704
815 1 1 4.396515 3.036948 12.274602
816 1 1 4.495279 2.718899 12.457605