LAMMPS data file for polymer system

27000 atoms
26940 bonds

1 atom types
1 bond types

0.0 31.55286053533754 xlo xhi
0.0 31.55286053533754 ylo yhi
0.0 31.55286053533754 zlo zhi

Masses

1 5.65487

Atoms

1 1 1 9.169275 13.722683 28.572422
2 1 1 9.331405 13.480416 28.816185
3 1 1 9.629688 13.389054 29.033165
4 1 1 9.598162 13.576016 29.362484
5 1 1 9.730984 13.902086 29.505442
6 1 1 9.928901 13.843608 29.824518
7 1 1 10.218633 13.891940 30.065597
8 1 1 10.383916 14.221077 29.972051
9 1 1 10.439588 14.570802 30.109865
10 1 1 10.604080 14.878489 30.260434
11 1 1 10.727541 15.162588 30.480537
12 1 1 10.607072 15.244763 30.831442
13 1 1 10.582978 15.572690 31.021925
14 1 1 10.796704 15.875651 30.938644
15 1 1 10.872508 16.247889 30.948296
16 1 1 10.613135 16.525577 30.944412
17 1 1 10.560219 16.655489 30.591251
18 1 1 10.300617 16.661806 30.313823
19 1 1 10.159987 16.851402 30.016037
20 1 1 10.262563 16.764296 29.660663
21 1 1 9.943090 16.683165 29.471574
22 1 1 9.952696 16.702100 29.092168
23 1 1 9.982407 16.390739 28.876364
24 1 1 9.960962 16.022156 28.786438
25 1 1 10.068368 15.658603 28.760104
26 1 1 9.815670 15.390814 28.854089
27 1 1 9.626915 15.127656 29.052884
28 1 1 9.432584 15.166245 29.377146
29 1 1 9.649437 15.181394 29.688828
30 1 1 9.810088 15.010422 29.987758
31 1 1 9.698521 14.653929 30.057510
32 1 1 9.733503 14.317542 30.230773
33 1 1 9.606629 14.189846 30.565432
34 1 1 9.751507 14.090378 30.902354
35 1 1 10.127006 14.146151 30.885324
36 1 1 10.337699 14.182857 31.199428
37 1 1 10.525451 14.215789 31.528160
38 1 1 10.765113 14.282047 0.262652
39 1 1 10.660487 13.939280 0.136303
40 1 1 10.700934 13.581952 0.013499
41 1 1 10.475348 13.550014 31.262236
42 1 1 10.503883 13.265446 31.512450
43 1 1 10.449162 12.899863 31.424388
44 1 1 10.273644 12.892463 31.087433
45 1 1 9.943402 12.704995 31.101434
46 1 1 9.733032 12.799645 31.403403
47 1 1 10.027847 12.882437 0.075554
48 1 1 9.914354 13.137856 0.333004
49 1 1 10.186943 13.399407 0.374071
50 1 1 10.057819 13.750319 0.306340
51 1 1 9.814432 13.928359 0.537565
52 1 1 9.711044 14.234729 0.737186
53 1 1 9.456716 14.311458 1.008902
54 1 1 9.138818 14.117876 1.085502
55 1 1 9.140845 13.738286 1.067966
56 1 1 8.845736 13.562790 0.905143
57 1 1 8.478510 13.605351 0.817200
58 1 1 8.260023 13.521721 0.517752
59 1 1 7.992805 13.302055 0.360458
60 1 1 7.891210 13.454614 0.027585
61 1 1 7.994033 13.740089 31.351685
62 1 1 8.110055 13.923494 31.039753
63 1 1 8.280544 14.248949 30.942736
64 1 1 8.152616 14.430231 30.634238
65 1 1 8.078531 14.786912 30.526117
66 1 1 7.899595 14.806645 30.191464
67 1 1 7.605006 14.689067 29.982196
68 1 1 7.596734 14.677846 29.602452
69 1 1 7.478812 14.963642 29.381511
70 1 1 7.309549 15.281924 29.501706
71 1 1 7.009760 15.501110 29.421185
72 1 1 7.027810 15.815788 29.208929
73 1 1 6.708365 15.836443 29.004165
74 1 1 6.333370 15.886559 29.039754
75 1 1 6.104942 15.629503 29.201442
76 1 1 5.870194 15.788763 29.454285
77 1 1 6.093255 15.940063 29.722150
78 1 1 6.400888 16.125432 29.598051
79 1 1 6.682534 16.374969 29.545076
80 1 1 6.710675 16.752458 29.578396
81 1 1 6.911834 16.868419 29.277584
82 1 1 7.205579 16.906407 29.039528
83 1 1 7.531073 17.054676 29.167863
84 1 1 7.794628 16.781674 29.188086
85 1 1 7.938223 16.455495 29.319946
86 1 1 7.912532 16.077737 29.352177
87 1 1 7.703949 15.792816 29.492581
88 1 1 7.847993 15.627258 29.802810
89 1 1 8.125569 15.388684 29.904957
90 1 1 8.392378 15.119736 29.934625
91 1 1 8.731908 14.950863 29.959141
92 1 1 8.891901 14.630391 29.832254
93 1 1 9.180299 14.556102 29.596230
94 1 1 9.335261 14.422185 29.276147
95 1 1 9.288817 14.195022 28.975082
96 1 1 9.419030 14.346288 28.651720
97 1 1 9.726667 14.143742 28.558262
98 1 1 9.940038 14.069277 28.252766
99 1 1 9.995759 13.780567 28.012055
100 1 1 10.222652 13.858570 27.717376
101 1 1 10.470981 14.023653 27.481835
102 1 1 10.820248 14.171150 27.507469
103 1 1 11.109299 14.338881 27.326593
104 1 1 11.368902 14.268961 27.058046
105 1 1 11.694451 14.074396 27.081756
106 1 1 11.846498 13.980446 27.417099
107 1 1 12.170335 14.087158 27.584856
108 1 1 12.407179 13.836914 27.745114
109 1 1 12.350059 13.472516 27.836499
110 1 1 12.391313 13.097684 27.789607
111 1 1 12.617726 12.818291 27.666819
112 1 1 12.436453 12.514596 27.527859
113 1 1 12.308977 12.215399 27.331313
114 1 1 12.036516 12.109211 27.088641
115 1 1 12.218237 12.026074 26.765430
116 1 1 12.116901 12.207229 26.447131
117 1 1 11.934189 12.077572 26.140202
118 1 1 11.918914 11.739932 25.966519
119 1 1 12.217566 11.710291 25.733435
120 1 1 12.156889 11.441552 25.471714
121 1 1 12.451340 11.303944 25.274832
122 1 1 12.830997 11.310102 25.259911
123 1 1 13.153131 11.275065 25.061411
124 1 1 13.357673 10.966524 24.975592
125 1 1 13.705359 11.010347 25.122541
126 1 1 13.970684 10.971063 24.853358
127 1 1 14.320018 11.101088 24.927244
128 1 1 14.544536 11.079624 25.233073
129 1 1 14.578503 11.061423 25.611114
130 1 1 14.700224 10.789303 25.846771
131 1 1 14.726649 10.884182 26.213785
132 1 1 14.770586 10.601651 26.464077
133 1 1 15.032985 10.334664 26.529379
134 1 1 15.051750 9.976939 26.656189
135 1 1 14.952848 9.701765 26.898876
136 1 1 14.580964 9.675156 26.972323
137 1 1 14.478000 9.310511 27.001170
138 1 1 14.357846 9.047679 26.754426
139 1 1 14.647735 8.834576 26.632148
140 1 1 14.865858 8.553129 26.764849
141 1 1 14.726532 8.446669 27.101975
142 1 1 14.690956 8.097717 27.248149
143 1 1 14.930349 7.999886 27.526574
144 1 1 15.289822 8.033142 27.645203
145 1 1 15.547626 8.059253 27.923152
146 1 1 15.903357 8.015761 27.796803
147 1 1 16.230311 7.952530 27.979841
148 1 1 16.322000 7.594938 27.889725
149 1 1 16.549546 7.394890 27.660370
150 1 1 16.926000 7.353282 27.629526
151 1 1 17.118945 7.026334 27.612881
152 1 1 17.287600 6.686685 27.588500
153 1 1 17.571100 6.737802 27.340680
154 1 1 17.842149 6.987607 27.433039
155 1 1 18.106802 6.857381 27.672623
156 1 1 18.080262 6.873964 28.051332
157 1 1 18.182699 7.091297 28.345735
158 1 1 18.260233 7.274818 28.669322
159 1 1 18.314292 7.646787 28.725148
160 1 1 18.351898 8.000524 28.858774
161 1 1 18.189804 8.269355 29.072914
162 1 1 18.127651 8.507387 29.362530
163 1 1 18.288081 8.662925 29.669891
164 1 1 18.099959 8.870377 29.926745
165 1 1 17.835322 8.967858 30.181430
166 1 1 17.487470 8.857937 30.075052
167 1 1 17.210224 8.830771 29.816601
168 1 1 17.055420 8.498459 29.716580
169 1 1 17.297091 8.236842 29.584097
170 1 1 17.602121 8.256992 29.809819
171 1 1 17.799042 8.099181 30.093928
172 1 1 18.162803 8.195341 30.147140
173 1 1 18.388191 7.962282 30.345341
174 1 1 18.327066 7.861622 30.706632
175 1 1 18.383117 7.793318 31.076217
176 1 1 18.451819 8.130150 31.238155
177 1 1 18.709770 8.367713 31.091782
178 1 1 18.835199 8.523813 30.768826
179 1 1 18.827633 8.679592 30.422307
180 1 1 18.923250 8.977120 30.206126
181 1 1 18.828609 9.135372 29.873862
182 1 1 18.947639 9.454072 29.704563
183 1 1 18.721071 9.737601 29.817161
184 1 1 18.547655 10.069753 29.880422
185 1 1 18.251823 10.116638 29.646574
186 1 1 18.210453 10.344158 29.345040
187 1 1 18.017376 10.644666 29.215362
188 1 1 18.072689 11.011513 29.133124
189 1 1 18.378635 11.162910 28.966163
190 1 1 18.725745 11.220066 29.109856
191 1 1 19.042041 11.051002 28.984260
192 1 1 19.343673 11.255560 28.876677
193 1 1 19.685708 11.413140 28.927482
194 1 1 19.925772 11.143938 29.047063
195 1 1 19.775508 10.924167 29.318211
196 1 1 19.503776 11.116245 29.501697
197 1 1 19.217545 11.341129 29.610782
198 1 1 19.030881 11.631218 29.770171
199 1 1 19.194018 11.962071 29.678943
200 1 1 19.016082 12.163740 29.410487
201 1 1 18.770043 12.204719 29.123807
202 1 1 18.683961 12.354265 28.785242
203 1 1 18.540937 12.383001 28.434360
204 1 1 18.442733 12.265769 28.086491
205 1 1 18.760638 12.225587 27.882232
206 1 1 18.900010 12.164215 27.534082
207 1 1 18.642817 12.056623 27.275865
208 1 1 18.405028 11.779139 27.380072
209 1 1 18.128663 11.912588 27.604155
210 1 1 17.821097 11.971526 27.819398
211 1 1 17.584941 12.265150 27.770254
212 1 1 17.710438 12.540923 27.999599
213 1 1 17.580928 12.897019 27.970918
214 1 1 17.244184 13.064478 28.025335
215 1 1 17.023695 12.985862 28.324674
216 1 1 17.183098 12.814521 28.624062
217 1 1 17.556465 12.882798 28.605757
218 1 1 17.932608 12.936637 28.609971
219 1 1 18.171592 13.227806 28.660046
220 1 1 18.342199 13.515392 28.479527
221 1 1 18.377094 13.816266 28.250055
222 1 1 18.459310 14.178464 28.330386
223 1 1 18.694508 14.473575 28.375007
224 1 1 18.965926 14.505710 28.111000
225 1 1 19.202659 14.794490 28.040551
226 1 1 19.146836 15.052802 28.313606
227 1 1 19.127631 15.376192 28.512227
228 1 1 19.260268 15.393795 28.867892
229 1 1 19.478573 15.179878 29.093685
230 1 1 19.463442 14.800952 29.117893
231 1 1 19.675053 14.692310 29.414234
232 1 1 19.996456 14.670247 29.615761
233 1 1 20.277153 14.923604 29.653435
234 1 1 20.244019 15.284848 29.766591
235 1 1 20.363025 15.537038 29.508447
236 1 1 20.613150 15.822537 29.490362
237 1 1 20.978319 15.854749 29.590433
238 1 1 21.155165 16.189314 29.624954
239 1 1 20.939511 16.498326 29.575914
240 1 1 20.968115 16.760006 29.849968
241 1 1 20.814358 17.082766 29.721187
242 1 1 20.597958 17.393504 29.753011
243 1 1 20.398441 17.677550 29.907643
244 1 1 20.262832 17.920238 30.166704
245 1 1 19.937241 18.114997 30.145266
246 1 1 19.804168 18.265696 30.467728
247 1 1 19.772277 18.525080 30.743595
248 1 1 19.715114 18.872434 30.600495
249 1 1 19.979231 19.138613 30.662067
250 1 1 20.046511 19.481813 30.513450
251 1 1 20.382687 19.649808 30.457205
252 1 1 20.724559 19.518790 30.355430
253 1 1 21.025541 19.366644 30.530534
254 1 1 21.301270 19.278912 30.284207
255 1 1 21.148500 19.326939 29.939599
256 1 1 20.892997 19.377807 29.662957
257 1 1 20.964973 19.652367 29.410299
258 1 1 21.152399 19.656319 29.079760
259 1 1 21.014391 19.444128 28.796336
260 1 1 21.091626 19.503684 28.429065
261 1 1 21.248217 19.641097 28.111265
262 1 1 21.426653 19.822337 27.828931
263 1 1 21.607845 20.145032 27.742688
264 1 1 21.866512 20.110733 27.466437
265 1 1 22.131647 19.838601 27.473354
266 1 1 22.094170 19.474067 27.573905
267 1 1 21.942755 19.414669 27.917336
268 1 1 22.135628 19.223150 28.182894
269 1 1 22.017538 18.942584 28.410351
270 1 1 22.198827 18.671314 28.605151
271 1 1 22.083556 18.546403 28.945019
272 1 1 21.771190 18.652725 29.133493
273 1 1 21.847788 19.001643 29.263067
274 1 1 22.054610 19.212964 29.501747
275 1 1 22.418198 19.259098 29.602120
276 1 1 22.703194 19.479143 29.723601
277 1 1 23.009705 19.352090 29.908827
278 1 1 23.026845 19.452306 30.274972
279 1 1 22.937890 19.592536 30.616766
280 1 1 23.140688 19.898801 30.714104
281 1 1 23.323745 20.005772 31.029456
282 1 1 23.612412 19.807761 31.177317
283 1 1 23.792249 19.473483 31.195114
284 1 1 24.088466 19.306244 31.364485
285 1 1 23.999534 19.241906 0.175427
286 1 1 23.791122 19.501393 0.358815
287 1 1 23.956175 19.834292 0.438411
288 1 1 24.010586 20.164787 0.258931
289 1 1 24.023700 20.544080 0.278017
290 1 1 24.242064 20.732072 0.030274
291 1 1 24.411278 21.002448 31.376583
292 1 1 24.336465 20.977698 31.004843
293 1 1 24.219999 20.792199 30.694319
294 1 1 24.068522 20.465941 30.816835
295 1 1 24.168260 20.129068 30.672028
296 1 1 24.235132 19.792981 30.507792
297 1 1 24.232763 19.417631 30.448572
298 1 1 24.515422 19.314592 30.216437
299 1 1 24.684588 19.044364 30.009654
300 1 1 24.996849 18.893748 30.165245
301 1 1 25.117431 19.071424 30.478759
302 1 1 25.035642 19.244864 30.806828
303 1 1 25.211905 19.383458 31.113622
304 1 1 25.525735 19.596140 31.087597
305 1 1 25.844321 19.676704 31.278416
306 1 1 25.999541 19.986083 31.121600
307 1 1 26.118124 20.347106 31.120680
308 1 1 25.996691 20.601274 30.865627
309 1 1 25.651476 20.612565 30.707200
310 1 1 25.510349 20.339054 30.484321
311 1 1 25.770014 20.214748 30.236285
312 1 1 25.631719 19.889259 30.097246
313 1 1 25.365428 19.780657 29.848862
314 1 1 25.062164 19.960122 29.706655
315 1 1 25.058926 20.334406 29.641079
316 1 1 25.379116 20.500968 29.759972
317 1 1 25.305215 20.741096 30.045064
318 1 1 25.109687 21.037430 29.909586
319 1 1 25.272098 21.265049 29.652269
320 1 1 25.592578 21.084804 29.556330
321 1 1 25.961830 21.014879 29.500087
322 1 1 26.313926 21.067486 29.367191
323 1 1 26.553085 20.864214 29.581394
324 1 1 26.637693 20.685022 29.905634
325 1 1 26.823764 20.648552 30.234948
326 1 1 26.893868 20.343357 30.450219
327 1 1 27.030931 20.419108 30.796450
328 1 1 27.229203 20.707106 30.945262
329 1 1 27.587489 20.714956 31.071632
330 1 1 27.887170 20.531020 30.927551
331 1 1 28.176599 20.285907 30.904102
332 1 1 28.345159 20.219244 31.238083
333 1 1 28.682485 20.392826 31.216166
334 1 1 28.954565 20.331651 31.474295
335 1 1 29.004161 20.437478 0.283015
336 1 1 29.138759 20.123048 0.448598
337 1 1 28.894204 19.846735 0.539391
338 1 1 28.519214 19.835608 0.478904
339 1 1 28.208532 19.617163 0.491492
340 1 1 27.989264 19.376481 0.687436
341 1 1 27.689818 19.143225 0.705428
342 1 1 27.435592 19.034305 0.966014
343 1 1 27.462595 19.038113 1.345035
344 1 1 27.441487 19.369862 1.529145
345 1 1 27.596525 19.567013 1.814618
346 1 1 27.541220 19.534192 2.189136
347 1 1 27.485890 19.436322 2.552124
348 1 1 27.241599 19.200583 2.722855
349 1 1 26.893133 19.100220 2.836425
350 1 1 26.611483 19.019335 2.594494
351 1 1 26.358536 18.875762 2.349944
352 1 1 26.460332 18.589796 2.121337
353 1 1 26.809274 18.484596 2.013761
354 1 1 27.187785 18.497133 1.982579
355 1 1 27.523026 18.409580 2.138617
356 1 1 27.780687 18.612624 2.330408
357 1 1 28.124024 18.663026 2.175555
358 1 1 28.208689 18.555882 1.820940
359 1 1 28.425939 18.824826 1.663233
360 1 1 28.665658 19.095180 1.780892
361 1 1 28.759327 19.046646 2.145955
362 1 1 28.837751 19.390058 2.288497
363 1 1 29.050764 19.567437 2.548425
364 1 1 28.912655 19.909679 2.638959
365 1 1 28.587854 19.979879 2.454634
366 1 1 28.649041 19.978692 2.079594
367 1 1 28.916891 20.039113 1.816905
368 1 1 29.011761 20.335952 1.599451
369 1 1 28.848177 20.532630 1.318457
370 1 1 28.635229 20.398390 1.033794
371 1 1 28.285468 20.278050 0.946700
372 1 1 28.000555 20.248272 1.196375
373 1 1 28.026101 19.917853 1.382308
374 1 1 28.310335 19.698328 1.506484
375 1 1 28.553506 19.603550 1.230287
376 1 1 28.573557 19.304730 0.996397
377 1 1 28.687165 18.954740 1.091268
378 1 1 28.412268 18.694207 1.060383
379 1 1 28.338170 18.447762 0.780786
380 1 1 28.420897 18.548848 0.423942
381 1 1 28.378505 18.911836 0.319812
382 1 1 28.578924 19.219231 0.221118
383 1 1 28.454687 19.342096 31.436534
384 1 1 28.519193 19.118785 31.135915
385 1 1 28.301485 19.208866 30.837773
386 1 1 28.374993 19.275930 30.471032
387 1 1 28.403859 19.496715 30.163103
388 1 1 28.758452 19.500162 30.026531
389 1 1 29.054141 19.738582 30.015403
390 1 1 29.096695 19.987416 29.731377
391 1 1 29.380650 20.206119 29.605127
392 1 1 29.465680 20.523722 29.795648
393 1 1 29.413987 20.655181 30.148418
394 1 1 29.323644 20.723609 30.511124
395 1 1 28.964040 20.713219 30.633504
396 1 1 28.680786 20.965818 30.614497
397 1 1 28.518425 21.197862 30.867864
398 1 1 28.238933 21.417648 30.733782
399 1 1 28.112381 21.247138 30.418646
400 1 1 27.767093 21.207934 30.264896
401 1 1 27.432397 21.374057 30.334049
402 1 1 27.261569 21.708061 30.394537
403 1 1 27.061303 21.670852 30.715331
404 1 1 27.152503 21.391086 30.955775
405 1 1 27.125277 21.204711 31.285810
406 1 1 26.872859 20.992859 31.475029
407 1 1 27.181585 21.030928 0.140432
408 1 1 27.420496 20.745552 0.217129
409 1 1 27.400228 20.521449 0.523343
410 1 1 27.170443 20.422271 0.809284
411 1 1 26.865180 20.197161 0.786043
412 1 1 26.600977 20.037970 0.564108
413 1 1 26.639402 19.668580 0.483641
414 1 1 26.839628 19.352988 0.415001
415 1 1 26.727432 19.031589 0.583864
416 1 1 26.429302 18.799308 0.544317
417 1 1 26.278236 18.450709 0.536734
418 1 1 26.110622 18.412800 0.197812
419 1 1 26.100058 18.640854 31.446897
420 1 1 26.247446 18.986181 31.505435
421 1 1 26.503195 19.196946 31.319505
422 1 1 26.584430 19.549557 31.203461
423 1 1 26.671128 19.919356 31.191967
424 1 1 26.998171 20.019532 31.357520
425 1 1 27.253434 20.255761 31.510610
426 1 1 26.897431 20.292539 0.085458
427 1 1 26.687217 20.562151 0.251347
428 1 1 26.329029 20.624759 0.140978
429 1 1 26.073620 20.448850 0.360574
430 1 1 25.940508 20.629193 0.667425
431 1 1 25.652281 20.515141 0.887238
432 1 1 25.724871 20.161169 1.004858
433 1 1 26.044431 19.955674 1.012150
434 1 1 26.215033 20.038872 1.341351
435 1 1 26.402714 20.136319 1.657072
436 1 1 26.660746 20.392592 1.546873
437 1 1 26.973843 20.589527 1.459772
438 1 1 26.868773 20.808528 1.167540
439 1 1 26.832013 21.162213 1.301538
440 1 1 26.604717 21.382024 1.512297
441 1 1 26.606198 21.748569 1.412085
442 1 1 26.820642 22.026827 1.267217
443 1 1 26.704993 22.242588 0.976575
444 1 1 26.638282 22.254990 0.602683
445 1 1 26.935445 22.394387 0.411208
446 1 1 27.248830 22.513816 0.232528
447 1 1 27.111607 22.433033 31.440361
448 1 1 27.369916 22.446824 31.161998
449 1 1 27.516414 22.581232 30.838157
450 1 1 27.817294 22.596200 30.606538
451 1 1 30.617124 30.161961 8.649251
452 1 1 30.829648 30.274149 8.354891
453 1 1 30.941609 30.159316 8.010394
454 1 1 30.897121 30.343526 7.681019
455 1 1 31.038913 30.256934 7.339264
456 1 1 30.829145 29.980418 7.184549
457 1 1 30.933726 29.768317 6.887100
458 1 1 31.225719 29.531501 6.942400
459 1 1 0.018367 29.439959 6.813390
460 1 1 0.081777 29.785832 6.957441
461 1 1 0.308261 30.090167 6.935405
462 1 1 0.502485 30.281374 7.200200
463 1 1 0.404481 30.228229 7.563478
464 1 1 0.497495 29.966866 7.823167
465 1 1 0.346236 29.619230 7.849052
466 1 1 0.211050 29.348666 7.619009
467 1 1 31.437736 29.202635 7.748180
468 1 1 31.437487 28.988270 8.061943
469 1 1 0.114171 29.217630 8.259688
470 1 1 31.477505 29.471445 8.469587
471 1 1 31.255472 29.369608 8.760673
472 1 1 31.047786 29.079022 8.630957
473 1 1 30.842439 29.068144 8.311404
474 1 1 30.723416 29.296751 8.032169
475 1 1 30.508573 29.367116 7.726732
476 1 1 30.379952 29.066872 7.532541
477 1 1 30.244057 28.803496 7.294706
478 1 1 30.153404 28.451086 7.185212
479 1 1 30.400569 28.167453 7.238710
480 1 1 30.714275 28.146109 7.452093
481 1 1 30.785188 27.937658 7.761802
482 1 1 30.649026 28.050453 8.098161
483 1 1 30.591701 28.174549 8.452723
484 1 1 30.850205 28.406401 8.607061
485 1 1 30.702757 28.528982 8.935135
486 1 1 30.474401 28.832703 8.932446
487 1 1 30.456891 29.193426 8.814242
488 1 1 30.169357 29.405877 8.685446
489 1 1 29.850370 29.472463 8.489963
490 1 1 29.805180 29.804604 8.310965
491 1 1 29.817913 30.179199 8.248384
492 1 1 29.712549 30.530819 8.346677
493 1 1 30.030298 30.698005 8.471112
494 1 1 30.061417 31.045034 8.622778
495 1 1 30.112235 31.200288 8.965872
496 1 1 30.196573 31.258464 9.331799
497 1 1 30.159510 31.407426 9.679415
498 1 1 29.801032 31.384578 9.803397
499 1 1 29.446220 31.491913 9.886988
500 1 1 29.225099 31.225907 10.044298
501 1 1 28.998244 31.264037 10.346760
502 1 1 29.075057 31.330558 10.712922
503 1 1 28.866003 0.082379 10.801614
504 1 1 29.011580 0.072788 11.152492
505 1 1 28.858144 0.191366 11.479290
506 1 1 29.062308 0.284429 11.785976
507 1 1 29.054393 31.524938 12.002249
508 1 1 29.337441 31.303918 12.126483
509 1 1 29.678248 31.136081 12.135503
510 1 1 29.834806 31.037965 12.467562
511 1 1 29.750679 30.795052 12.747412
512 1 1 29.469975 30.540827 12.716187
513 1 1 29.147196 30.652682 12.882626
514 1 1 29.060342 31.022277 12.898638
515 1 1 29.155176 31.176938 13.232534
516 1 1 29.130801 30.940941 13.529369
517 1 1 28.856274 30.942732 13.792109
518 1 1 28.921649 31.091349 14.135677
519 1 1 29.286117 31.196926 14.156094
520 1 1 29.604840 30.991953 14.127786
521 1 1 29.918718 30.814773 14.007420
522 1 1 29.812750 30.532414 13.776239
523 1 1 29.585595 30.227984 13.765161
524 1 1 29.223638 30.223441 13.880772
525 1 1 28.909402 30.056493 14.014130
526 1 1 28.789390 29.701635 13.950311
527 1 1 28.951471 29.359259 13.920171
528 1 1 28.963929 29.166703 13.592807
529 1 1 28.930030 29.290254 13.235055
530 1 1 28.611222 29.137278 13.095914
531 1 1 28.245817 29.117464 13.198319
532 1 1 27.876608 29.039700 13.153182
533 1 1 27.502880 29.001081 13.210069
534 1 1 27.344218 29.282029 13.410803
535 1 1 27.136264 29.487395 13.653661
536 1 1 26.846853 29.684975 13.800643
537 1 1 26.770977 30.054284 13.848117
538 1 1 26.914914 30.152853 14.185706
539 1 1 27.074653 30.446019 14.367192
540 1 1 27.171346 30.768860 14.542759
541 1 1 27.481162 30.951425 14.665578
542 1 1 27.400435 31.322580 14.654304
543 1 1 27.612350 31.501942 14.913768
544 1 1 27.374056 0.093669 15.172052
545 1 1 27.701744 0.285488 15.187089
546 1 1 27.893560 0.550511 14.993777
547 1 1 28.218399 0.680354 15.142168
548 1 1 28.367044 1.010721 15.027440
549 1 1 28.730760 1.116210 15.058788
550 1 1 29.008945 0.947676 14.862295
551 1 1 29.357165 1.054662 14.970448
552 1 1 29.673039 1.265656 14.980707
553 1 1 29.777994 1.531472 14.730255
554 1 1 29.656872 1.776049 14.465847
555 1 1 29.503818 1.764379 14.118229
556 1 1 29.424033 1.605045 13.782600
557 1 1 29.078190 1.450404 13.752964
558 1 1 29.015011 1.115585 13.584723
559 1 1 28.775319 1.187835 13.298843
560 1 1 28.674146 1.127634 12.937540
561 1 1 28.458680 0.938254 12.688323
562 1 1 28.235358 0.635400 12.635339
563 1 1 28.370648 0.289524 12.554928
564 1 1 28.326196 31.503258 12.720511
565 1 1 28.097963 31.208239 12.647896
566 1 1 27.815183 30.994178 12.511466
567 1 1 27.506041 30.881235 12.701401
568 1 1 27.285453 30.593014 12.588842
569 1 1 27.371784 30.445420 12.249486
570 1 1 27.300153 30.457769 11.876502
571 1 1 27.472211 30.667134 11.610115
572 1 1 27.314597 30.745459 11.273331
573 1 1 27.042323 30.519816 11.134221
574 1 1 26.712941 30.376829 11.258568
575 1 1 26.385038 30.537566 11.363654
576 1 1 26.400145 30.916942 11.347978
577 1 1 26.443812 31.148710 11.645932
578 1 1 26.564819 31.423300 11.879079
579 1 1 26.578195 0.194430 12.077200
580 1 1 26.581152 0.542688 12.229211
581 1 1 26.934170 0.631600 12.338174
582 1 1 27.313423 0.634170 12.314499
583 1 1 27.595471 0.604970 12.567474
584 1 1 27.701025 0.542748 12.927178
585 1 1 27.942968 0.541678 13.220201
586 1 1 28.319319 0.547721 13.272385
587 1 1 28.584495 0.423972 13.514806
588 1 1 28.429437 0.249763 13.814820
589 1 1 28.633845 0.223749 14.134101
590 1 1 28.504951 0.446196 14.413929
591 1 1 28.619992 0.307755 14.748593
592 1 1 28.948902 0.170679 14.880608
593 1 1 28.872882 31.431723 15.111831
594 1 1 28.937841 31.189365 15.397213
595 1 1 29.187956 31.360280 15.626626
596 1 1 29.238377 0.178821 15.689223
597 1 1 29.595269 0.104939 15.796788
598 1 1 29.614481 31.462304 16.122076
599 1 1 29.987591 31.410311 16.072218
600 1 1 30.145938 31.198405 15.799414
601 1 1 30.118464 30.822273 15.752828
602 1 1 29.842303 30.592848 15.877323
603 1 1 29.652254 30.302500 16.032176
604 1 1 29.394481 30.241095 16.304541
605 1 1 29.192633 30.200737 16.623960
606 1 1 29.020509 30.521506 16.732958
607 1 1 29.241415 30.804020 16.607315
608 1 1 29.561616 30.942396 16.758059
609 1 1 29.898243 30.841962 16.613164
610 1 1 30.259052 30.894928 16.506337
611 1 1 30.377218 31.216787 16.670178
612 1 1 30.594172 31.461850 16.863244
613 1 1 30.729093 31.262626 17.157363
614 1 1 30.689713 31.481173 17.465724
615 1 1 30.721943 31.398749 17.835275
616 1 1 30.991255 31.261712 18.065692
617 1 1 30.924516 31.284101 18.439115
618 1 1 30.731079 31.026893 18.641171
619 1 1 30.904202 30.985282 18.976875
620 1 1 31.126411 30.770504 19.197993
621 1 1 30.897557 30.517643 19.365584
622 1 1 30.795149 30.210110 19.167251
623 1 1 30.620078 29.874105 19.138078
624 1 1 30.418923 29.554979 19.183846
625 1 1 30.149299 29.291812 19.134385
626 1 1 30.002917 29.001029 18.938381
627 1 1 29.853460 28.655953 18.993020
628 1 1 30.023624 28.327705 18.905287
629 1 1 30.205099 27.994021 18.894255
630 1 1 30.575379 27.922954 18.941603
631 1 1 30.617529 27.565206 19.062598
632 1 1 30.449131 27.282235 19.252254
633 1 1 30.647336 26.972235 19.157308
634 1 1 30.764254 27.015662 18.798359
635 1 1 30.498205 27.106989 18.542866
636 1 1 30.422491 27.143087 18.172239
637 1 1 30.564142 27.115530 17.820705
638 1 1 30.877203 27.008285 17.633914
639 1 1 31.086442 26.715445 17.755831
640 1 1 31.104357 26.473229 18.048082
641 1 1 31.266002 26.513558 18.389615
642 1 1 31.307550 26.733344 18.696808
643 1 1 31.475101 26.626353 19.020659
644 1 1 0.251218 26.640207 18.830970
645 1 1 0.484004 26.900233 18.981292
646 1 1 0.764470 27.138516 19.075949
647 1 1 0.935100 27.475192 19.031962
648 1 1 0.961939 27.710391 19.329218
649 1 1 0.898638 28.059484 19.193104
650 1 1 0.965250 28.417736 19.085317
651 1 1 0.983990 28.749089 18.900238
652 1 1 0.924554 28.790127 18.527165
653 1 1 0.824626 28.712189 18.168920
654 1 1 0.643016 28.536291 17.885234
655 1 1 0.311439 28.373550 17.974517
656 1 1 31.538464 28.567099 18.002270
657 1 1 31.434657 28.877352 17.808964
658 1 1 0.202406 29.079483 17.836400
659 1 1 0.516126 29.171844 17.642882
660 1 1 0.883605 29.077498 17.664290
661 1 1 1.008280 28.983212 17.317929
662 1 1 1.065565 28.988265 16.942306
663 1 1 0.953845 29.197765 16.645610
664 1 1 0.793528 29.106922 16.313276
665 1 1 0.869772 29.131709 15.941830
666 1 1 0.842146 29.474577 15.780342
667 1 1 0.566124 29.719483 15.871075
668 1 1 0.528693 30.096991 15.893148
669 1 1 0.557457 30.391154 15.654316
670 1 1 0.446411 30.693251 15.856320
671 1 1 0.380855 30.776120 16.221334
672 1 1 0.709038 30.862705 16.392210
673 1 1 0.730448 31.070482 16.709653
674 1 1 0.535580 30.913467 16.995612
675 1 1 0.248998 30.795924 17.215736
676 1 1 0.320569 30.571164 17.513663
677 1 1 31.514534 30.484605 17.423653
678 1 1 31.167618 30.623444 17.354565
679 1 1 30.876228 30.428115 17.208489
680 1 1 30.640365 30.246627 16.972204
681 1 1 30.768565 29.897611 16.893764
682 1 1 31.073609 29.783537 16.697971
683 1 1 31.322096 30.012707 16.524375
684 1 1 31.133380 30.333745 16.448741
685 1 1 31.241825 30.629747 16.236556
686 1 1 30.974352 30.753073 15.996453
687 1 1 30.866893 30.868279 15.650650
688 1 1 30.757742 31.104218 15.373488
689 1 1 31.040025 31.357453 15.349221
690 1 1 31.374540 31.181939 15.390390
691 1 1 0.126395 31.340569 15.552824
692 1 1 0.321134 31.104275 15.327786
693 1 1 0.653985 30.986616 15.187192
694 1 1 0.756825 30.645216 15.055777
695 1 1 0.956483 30.327566 14.995482
696 1 1 1.050364 29.963649 14.939350
697 1 1 1.321149 29.942926 14.673557
698 1 1 1.678114 29.942115 14.803847
699 1 1 1.944869 29.708391 14.940282
700 1 1 1.864952 29.471987 15.226859
701 1 1 2.182957 29.271670 15.282949
702 1 1 2.259974 29.134612 15.628902
703 1 1 2.359938 29.195649 15.990402
704 1 1 2.162257 28.965172 16.218880
705 1 1 2.037797 28.679943 16.436950
706 1 1 1.877751 28.831800 16.746344
707 1 1 1.803970 29.179224 16.881449
708 1 1 1.892823 29.363247 17.201824
709 1 1 1.937440 29.570004 17.517515
710 1 1 2.177876 29.856751 17.583599
711 1 1 2.017864 30.200900 17.602526
712 1 1 1.866599 30.482621 17.397216
713 1 1 2.054003 30.737364 17.186537
714 1 1 2.147974 31.085508 17.066683
715 1 1 2.500769 31.213543 17.007162
716 1 1 2.814078 31.046827 17.142968
717 1 1 3.173997 31.012534 17.259941
718 1 1 3.449563 30.854475 17.468461
719 1 1 3.685546 30.677132 17.229167
720 1 1 3.886432 30.736178 16.912057
721 1 1 4.158448 30.940467 16.742726
722 1 1 4.187914 31.316445 16.696122
723 1 1 4.188480 31.533890 17.007759
724 1 1 4.143313 0.325561 17.161569
725 1 1 4.417818 0.449595 16.929918
726 1 1 4.642473 0.668114 17.144812
727 1 1 4.586680 0.873681 17.459502
728 1 1 4.644819 0.666228 17.772524
729 1 1 4.543928 0.322331 17.898840
730 1 1 4.332842 0.006359 17.896778
731 1 1 4.519973 31.513247 18.224297
732 1 1 4.254186 31.245908 18.272122
733 1 1 4.024463 30.986838 18.428679
734 1 1 3.672664 31.106746 18.507797
735 1 1 3.518902 31.359182 18.268981
736 1 1 3.528538 31.406058 17.892007
737 1 1 3.448094 0.221981 17.935910
738 1 1 3.353012 0.063906 17.603688
739 1 1 3.361927 0.304652 17.309814
740 1 1 3.434581 0.609699 17.095179
741 1 1 3.307901 0.940951 16.958710
742 1 1 2.963150 1.100538 16.949813
743 1 1 2.674245 0.853894 16.959864
744 1 1 2.647662 0.475581 16.935949
745 1 1 2.362733 0.274197 16.785417
746 1 1 2.026867 0.096458 16.786961
747 1 1 2.224218 31.500625 16.498269
748 1 1 2.228596 0.122879 16.161052
749 1 1 1.946738 0.104467 15.906852
750 1 1 2.249253 31.438808 15.835202
751 1 1 2.616762 31.525514 15.877860
752 1 1 2.628763 0.254473 15.623235
753 1 1 2.985403 0.322292 15.510948
754 1 1 3.177870 0.638619 15.425543
755 1 1 2.937691 0.898422 15.286920
756 1 1 2.825652 1.258894 15.243252
757 1 1 2.800676 1.429729 15.581765
758 1 1 2.564884 1.613054 15.816699
759 1 1 2.267989 1.664691 16.048188
760 1 1 2.304386 1.516133 16.396047
761 1 1 2.089004 1.339863 16.654773
762 1 1 2.134279 0.968215 16.719800
763 1 1 1.914495 0.762011 16.488338
764 1 1 2.027227 0.787256 16.126325
765 1 1 1.979842 0.955089 15.788705
766 1 1 1.927012 1.088440 15.436815
767 1 1 1.889400 1.310692 15.130891
768 1 1 2.083365 1.326073 14.804485
769 1 1 2.075804 1.114768 14.488744
770 1 1 2.401219 0.919600 14.468386
771 1 1 2.662301 0.733797 14.672626
772 1 1 2.946109 0.609759 14.452473
773 1 1 3.141443 0.314950 14.313433
774 1 1 3.289449 0.167998 13.995786
775 1 1 3.394289 0.455329 13.770288
776 1 1 3.144548 0.737748 13.817922
777 1 1 3.270602 0.994759 14.067834
778 1 1 3.271821 1.356334 14.184718
779 1 1 3.317048 1.729786 14.238456
780 1 1 3.191910 1.989778 14.485730
781 1 1 2.985596 1.827874 14.760724
782 1 1 3.151304 1.858936 15.101277
783 1 1 2.940124 2.059667 15.345224
784 1 1 3.112479 2.157188 15.669544
785 1 1 3.129835 2.114695 16.046762
786 1 1 3.369282 1.918268 16.266948
787 1 1 3.710575 1.930037 16.433622
788 1 1 4.035268 1.762425 16.329312
789 1 1 4.348968 1.833022 16.531817
790 1 1 4.277197 1.722536 16.888246
791 1 1 4.504210 1.918256 17.121824
792 1 1 4.796392 2.080405 16.940890
793 1 1 5.125670 2.162706 16.770002
794 1 1 5.410611 1.937685 16.657866
795 1 1 5.683261 1.906326 16.395039
796 1 1 6.057351 1.841815 16.377853
797 1 1 6.142736 1.492128 16.499625
798 1 1 6.017278 1.241592 16.756319
799 1 1 6.096995 0.881958 16.849636
800 1 1 6.011919 0.519543 16.925909