LAMMPS data file for polymer system

27000 atoms
26940 bonds

1 atom types
1 bond types

0.0 35.1858945654143 xlo xhi
0.0 35.1858945654143 ylo yhi
0.0 35.1858945654143 zlo zhi

Masses

1 5.65487

Atoms

1 1 1 24.976068 27.371053 21.679495
2 1 1 24.885999 27.005456 21.730739
3 1 1 24.703911 26.885124 22.041808
4 1 1 24.452274 26.678809 22.238057
5 1 1 24.126822 26.666879 22.433859
6 1 1 23.987031 26.936305 22.662483
7 1 1 23.700436 27.084453 22.863269
8 1 1 23.656647 27.092198 23.240658
9 1 1 23.482162 27.366364 23.437605
10 1 1 23.523652 27.582354 23.747487
11 1 1 23.759433 27.854602 23.868682
12 1 1 24.131823 27.923204 23.900614
13 1 1 24.412452 27.976427 24.151243
14 1 1 24.558125 27.692386 24.357398
15 1 1 24.864616 27.677633 24.581554
16 1 1 25.143314 27.823376 24.794829
17 1 1 25.492066 27.907432 24.920155
18 1 1 25.589706 27.770112 25.260757
19 1 1 25.681740 27.405023 25.209384
20 1 1 25.386536 27.206176 25.342479
21 1 1 25.017242 27.120694 25.315742
22 1 1 24.982995 26.743148 25.341930
23 1 1 25.283569 26.594311 25.163318
24 1 1 25.603867 26.398987 25.223804
25 1 1 25.498100 26.094001 25.424296
26 1 1 25.143177 25.967068 25.376154
27 1 1 24.814502 25.986955 25.565831
28 1 1 24.581673 25.711322 25.446596
29 1 1 24.442055 25.566416 25.124247
30 1 1 24.473623 25.217096 24.978029
31 1 1 24.725648 24.933433 24.998487
32 1 1 24.780437 24.593986 25.160271
33 1 1 24.779074 24.342609 25.445240
34 1 1 24.482750 24.104740 25.442065
35 1 1 24.168415 23.980313 25.268539
36 1 1 23.792861 23.925540 25.287481
37 1 1 23.564127 23.941178 25.590526
38 1 1 23.737251 24.042291 25.913333
39 1 1 23.835023 24.373454 26.071988
40 1 1 23.824566 24.753042 26.086265
41 1 1 24.122317 24.919601 25.918926
42 1 1 24.235923 25.266262 26.025318
43 1 1 23.993199 25.534877 26.140780
44 1 1 23.989765 25.620381 26.511019
45 1 1 24.094564 25.863199 26.783887
46 1 1 24.155567 26.055110 27.106143
47 1 1 24.169355 25.858680 27.431143
48 1 1 24.138225 25.523632 27.607705
49 1 1 24.346865 25.224678 27.714921
50 1 1 24.698618 25.092965 27.772554
51 1 1 24.961247 25.054580 27.500611
52 1 1 24.774654 25.069930 27.169934
53 1 1 24.864063 25.377432 26.965364
54 1 1 25.091223 25.324238 26.665416
55 1 1 25.340339 25.350626 26.379681
56 1 1 25.410620 25.716615 26.305434
57 1 1 25.621491 26.002833 26.171222
58 1 1 25.445708 26.298053 26.008908
59 1 1 25.148194 26.530707 26.050831
60 1 1 25.049349 26.897432 26.062759
61 1 1 24.732114 27.094466 26.133040
62 1 1 24.457012 27.099136 26.395141
63 1 1 24.231432 26.795335 26.360224
64 1 1 24.254747 26.456416 26.189958
65 1 1 24.268205 26.502128 25.812957
66 1 1 24.370368 26.466346 25.448702
67 1 1 24.228961 26.170167 25.257177
68 1 1 23.867918 26.134167 25.370102
69 1 1 23.702182 26.097609 25.710095
70 1 1 23.597301 26.349177 25.974884
71 1 1 23.661645 26.308661 26.347198
72 1 1 23.704747 26.497204 26.674297
73 1 1 23.835779 26.713551 26.957889
74 1 1 24.157230 26.676447 27.157120
75 1 1 24.108932 26.747649 27.527252
76 1 1 23.782035 26.910755 27.631823
77 1 1 23.534628 27.198899 27.644555
78 1 1 23.503957 27.536220 27.816817
79 1 1 23.780380 27.628885 28.060546
80 1 1 23.662020 27.866621 28.332340
81 1 1 23.715347 27.967025 28.694935
82 1 1 23.865718 28.166969 28.980962
83 1 1 24.088872 28.424347 29.149362
84 1 1 24.137705 28.754641 28.967919
85 1 1 24.280940 29.036570 29.178631
86 1 1 24.290496 28.946896 29.547775
87 1 1 24.654910 28.870026 29.623231
88 1 1 24.924529 28.720802 29.400884
89 1 1 24.893441 28.874108 29.054574
90 1 1 24.983449 28.878968 28.685419
91 1 1 24.660191 28.860311 28.486531
92 1 1 24.503081 29.205783 28.505654
93 1 1 24.698913 29.434231 28.737735
94 1 1 24.776798 29.773102 28.584436
95 1 1 25.052616 30.027497 28.524374
96 1 1 25.042120 30.253533 28.219091
97 1 1 25.123941 30.622434 28.259303
98 1 1 25.424286 30.849209 28.206710
99 1 1 25.793522 30.772712 28.159669
100 1 1 26.073355 30.755254 27.903175
101 1 1 25.942936 30.518941 27.635692
102 1 1 26.047503 30.209062 27.442196
103 1 1 26.296888 29.953371 27.312470
104 1 1 26.616732 29.838900 27.142187
105 1 1 26.853809 29.612508 26.949986
106 1 1 27.216721 29.641490 27.058866
107 1 1 27.267864 29.796867 27.401856
108 1 1 27.043548 29.719658 27.698708
109 1 1 26.855672 29.886419 27.983828
110 1 1 26.594219 30.162127 27.978542
111 1 1 26.648660 30.401845 27.688763
112 1 1 26.997712 30.449751 27.546400
113 1 1 27.354511 30.375946 27.654323
114 1 1 27.697275 30.216209 27.616944
115 1 1 28.031374 30.396212 27.597533
116 1 1 28.165432 30.751631 27.607793
117 1 1 28.266137 30.948271 27.298615
118 1 1 28.161303 31.236590 27.074379
119 1 1 28.241836 31.434037 26.759849
120 1 1 28.355095 31.775020 26.883555
121 1 1 28.291286 32.139911 26.798805
122 1 1 28.521687 32.401269 26.647124
123 1 1 28.607809 32.704740 26.858993
124 1 1 28.654604 32.867005 27.199405
125 1 1 28.698872 33.236514 27.122570
126 1 1 28.974265 33.302057 26.869068
127 1 1 29.182175 33.083856 26.637634
128 1 1 29.438759 33.108572 26.358432
129 1 1 29.490248 33.470944 26.256278
130 1 1 29.865403 33.519410 26.220089
131 1 1 30.159865 33.430030 26.443031
132 1 1 30.213425 33.057834 26.497820
133 1 1 30.211119 32.792533 26.225772
134 1 1 29.954867 32.888337 25.962037
135 1 1 29.810029 33.121291 25.699064
136 1 1 29.765336 33.363832 25.409969
137 1 1 29.687688 33.182280 25.085300
138 1 1 29.381109 33.138721 24.865046
139 1 1 29.059783 32.942193 24.814784
140 1 1 28.728946 32.816969 24.675982
141 1 1 28.657883 32.461981 24.560512
142 1 1 28.500552 32.169047 24.376564
143 1 1 28.220840 31.930213 24.281070
144 1 1 28.146986 31.580311 24.152562
145 1 1 27.790792 31.473051 24.230159
146 1 1 27.555147 31.557826 23.944354
147 1 1 27.427846 31.267758 23.734461
148 1 1 27.475358 30.911900 23.858991
149 1 1 27.232928 30.879399 24.149803
150 1 1 27.049713 30.860770 24.482196
151 1 1 27.143413 30.638223 24.775613
152 1 1 27.268856 30.711516 25.126742
153 1 1 27.470900 30.425609 25.274511
154 1 1 27.650348 30.117128 25.405040
155 1 1 27.998338 30.197258 25.534971
156 1 1 28.178360 29.908371 25.703899
157 1 1 27.949796 29.672617 25.895154
158 1 1 28.112452 29.464103 26.168036
159 1 1 28.422853 29.358030 26.359868
160 1 1 28.792841 29.380566 26.276194
161 1 1 28.974874 29.565075 25.998308
162 1 1 29.200261 29.513182 25.696799
163 1 1 29.230551 29.429387 25.327393
164 1 1 29.319656 29.334964 24.970259
165 1 1 29.388624 29.559435 24.671501
166 1 1 29.493224 29.909139 24.565834
167 1 1 29.453137 30.268219 24.448129
168 1 1 29.138884 30.391449 24.622656
169 1 1 28.899831 30.576616 24.392510
170 1 1 28.577003 30.378854 24.359767
171 1 1 28.400831 30.202342 24.646484
172 1 1 28.225362 30.351238 24.948876
173 1 1 27.941030 30.599815 24.906868
174 1 1 27.859884 30.955389 24.800181
175 1 1 27.960974 31.295127 24.937146
176 1 1 27.810333 31.628437 25.040156
177 1 1 27.545303 31.573391 25.306856
178 1 1 27.592319 31.733934 25.648053
179 1 1 27.801519 31.593923 25.932714
180 1 1 27.597656 31.320874 26.100892
181 1 1 27.679835 31.192639 26.449034
182 1 1 27.910410 30.907440 26.548517
183 1 1 28.010521 30.575958 26.705032
184 1 1 28.194008 30.253814 26.788435
185 1 1 28.410391 30.049975 26.551732
186 1 1 28.547655 29.972505 26.205962
187 1 1 28.826148 30.152667 26.020536
188 1 1 28.747722 30.523553 26.046861
189 1 1 28.774631 30.830407 25.824338
190 1 1 28.752203 31.191618 25.708479
191 1 1 28.481481 31.356250 25.498702
192 1 1 28.367577 31.718777 25.498510
193 1 1 28.383704 32.035711 25.289481
194 1 1 28.616504 32.334687 25.318062
195 1 1 28.879340 32.606284 25.278658
196 1 1 28.974238 32.921515 25.468458
197 1 1 28.902877 33.268287 25.606503
198 1 1 28.607378 33.505901 25.631402
199 1 1 28.677357 33.739887 25.922528
200 1 1 28.928524 34.022886 25.957548
201 1 1 29.057374 34.221251 26.254951
202 1 1 29.096844 34.125013 26.620438
203 1 1 29.190220 34.280362 26.954425
204 1 1 29.035849 34.521380 27.204385
205 1 1 29.249752 34.726987 27.441811
206 1 1 29.582111 34.907095 27.480523
207 1 1 29.682936 0.080711 27.551136
208 1 1 29.583181 0.022088 27.913092
209 1 1 29.423616 0.289608 28.130743
210 1 1 29.097586 0.320801 28.323438
211 1 1 28.897118 0.427168 28.628231
212 1 1 28.921736 0.614808 28.957753
213 1 1 29.042260 0.396059 29.244150
214 1 1 29.324175 0.202662 29.410046
215 1 1 29.286193 35.010511 29.416263
216 1 1 29.310411 34.833095 29.081096
217 1 1 29.182324 34.583923 28.824372
218 1 1 29.228532 34.681901 28.460140
219 1 1 29.395744 34.752350 28.126258
220 1 1 29.764942 34.666871 28.098220
221 1 1 30.089574 34.526094 27.959670
222 1 1 30.304292 34.234691 28.075345
223 1 1 30.357984 33.869264 28.164679
224 1 1 30.053794 33.708737 28.326234
225 1 1 30.012383 33.332239 28.356804
226 1 1 30.123568 33.051099 28.587017
227 1 1 30.062367 32.757823 28.820776
228 1 1 30.055180 32.381086 28.771607
229 1 1 29.714233 32.214475 28.791518
230 1 1 29.404871 32.423649 28.721227
231 1 1 29.416036 32.777484 28.583109
232 1 1 29.259787 33.099714 28.710207
233 1 1 29.162823 33.313216 28.411184
234 1 1 29.403226 33.554190 28.242252
235 1 1 29.575736 33.629774 27.912211
236 1 1 29.727477 33.732678 27.579366
237 1 1 30.070253 33.729630 27.415368
238 1 1 30.031435 33.831443 27.051325
239 1 1 29.783270 33.912250 26.775129
240 1 1 29.680369 34.110303 26.467580
241 1 1 29.835039 34.118165 26.120571
242 1 1 30.034207 34.197662 25.806864
243 1 1 30.262078 34.380544 25.563905
244 1 1 30.518516 34.561118 25.349353
245 1 1 30.896105 34.577653 25.309941
246 1 1 31.056148 34.891491 25.167492
247 1 1 31.419476 34.980646 25.234156
248 1 1 31.271943 0.100330 25.405200
249 1 1 30.901003 0.027678 25.366149
250 1 1 30.761933 0.144672 25.032424
251 1 1 30.497704 0.280285 24.795376
252 1 1 30.183126 0.084127 24.878817
253 1 1 30.525699 35.108455 24.848164
254 1 1 30.257735 35.056212 24.583842
255 1 1 30.227874 35.117439 24.209998
256 1 1 30.273244 0.299106 24.124907
257 1 1 30.428577 0.261062 23.780199
258 1 1 30.501123 0.190349 23.413951
259 1 1 30.482467 35.014204 23.527877
260 1 1 30.726356 35.132238 23.794309
261 1 1 31.096556 35.056202 23.754680
262 1 1 31.409381 34.929634 23.579976
263 1 1 31.509416 34.635127 23.361668
264 1 1 31.504050 34.336521 23.126708
265 1 1 31.744496 34.249418 22.845641
266 1 1 32.053111 34.196392 22.630361
267 1 1 32.203635 34.419838 22.362379
268 1 1 32.538279 34.470220 22.189534
269 1 1 32.745858 34.152110 22.200343
270 1 1 33.102986 34.146114 22.070638
271 1 1 33.107175 34.214105 21.696793
272 1 1 33.130734 33.872832 21.531330
273 1 1 33.471458 33.804139 21.377745
274 1 1 33.721308 34.090201 21.365779
275 1 1 34.059456 34.080922 21.538898
276 1 1 34.416545 34.163579 21.438622
277 1 1 34.399852 34.399946 21.141550
278 1 1 34.121814 34.639391 21.042753
279 1 1 33.863703 34.646421 20.763953
280 1 1 33.703453 34.977896 20.669909
281 1 1 33.850819 0.014328 20.399254
282 1 1 34.023471 0.337033 20.297014
283 1 1 34.186505 0.576651 20.051244
284 1 1 34.409309 0.815671 20.245222
285 1 1 34.731717 0.720570 20.422448
286 1 1 35.082321 0.617880 20.317896
287 1 1 0.019791 0.508445 19.975543
288 1 1 34.913408 0.372083 19.774596
289 1 1 34.612398 0.264224 19.569269
290 1 1 34.421220 35.122011 19.555249
291 1 1 34.341864 34.796832 19.375358
292 1 1 34.187083 34.612193 19.081502
293 1 1 33.844311 34.700255 18.943108
294 1 1 33.766163 35.071455 18.920677
295 1 1 34.000207 0.131301 18.749693
296 1 1 34.252052 0.392940 18.637806
297 1 1 34.466499 0.703509 18.682075
298 1 1 34.472312 0.768961 19.056350
299 1 1 34.620190 1.052879 19.261101
300 1 1 34.860186 1.117620 19.548521
301 1 1 35.107483 1.068320 19.832798
302 1 1 0.001228 1.114099 20.201528
303 1 1 0.021601 1.375879 19.926835
304 1 1 0.341429 1.388803 19.722035
305 1 1 0.578762 1.364133 19.426292
306 1 1 0.828405 1.080186 19.388181
307 1 1 1.175682 0.996410 19.517719
308 1 1 1.403185 0.706827 19.423993
309 1 1 1.775904 0.652235 19.473994
310 1 1 1.981481 0.934565 19.623755
311 1 1 1.770050 1.117199 19.881324
312 1 1 1.792265 1.204519 20.250488
313 1 1 1.607744 1.130523 20.574335
314 1 1 1.319463 0.884586 20.602773
315 1 1 1.068261 0.638160 20.746202
316 1 1 1.007748 0.281754 20.863305
317 1 1 0.727619 0.058862 20.990769
318 1 1 0.460684 0.042974 21.260756
319 1 1 0.233370 0.342461 21.315852
320 1 1 0.265017 35.150005 21.331648
321 1 1 35.105274 35.133105 21.488648
322 1 1 34.930784 34.832271 21.641789
323 1 1 34.750456 34.629574 21.907864
324 1 1 34.935354 34.310503 21.999548
325 1 1 0.001843 34.519636 22.191813
326 1 1 0.151235 34.866475 22.149567
327 1 1 0.427637 34.932784 21.897367
328 1 1 0.318094 0.037005 22.116988
329 1 1 0.070333 0.316122 22.045520
330 1 1 34.954239 0.190725 22.239114
331 1 1 35.146704 0.434217 22.019867
332 1 1 35.143292 0.728187 21.779098
333 1 1 35.172817 0.727354 21.400247
334 1 1 0.160080 0.899552 21.691390
335 1 1 0.321015 1.129553 21.435267
336 1 1 0.466934 1.407509 21.221145
337 1 1 0.663786 1.730244 21.259768
338 1 1 0.805487 1.937434 20.974473
339 1 1 0.738857 2.307774 20.921475
340 1 1 0.949876 2.611843 20.835373
341 1 1 1.269791 2.602450 21.040228
342 1 1 1.584460 2.439101 21.176979
343 1 1 1.963416 2.414996 21.162435
344 1 1 2.115513 2.086608 21.278311
345 1 1 2.238464 1.872296 20.989601
346 1 1 2.480844 1.592053 21.073957
347 1 1 2.661747 1.666261 21.399790
348 1 1 3.023399 1.570441 21.466322
349 1 1 3.400922 1.562790 21.508960
350 1 1 3.626494 1.451355 21.793740
351 1 1 3.961983 1.364029 21.638107
352 1 1 4.185037 1.659520 21.723731
353 1 1 4.003115 1.890543 21.964423
354 1 1 4.174526 2.228729 21.989879
355 1 1 4.334927 2.556722 22.095199
356 1 1 4.204062 2.896159 22.205002
357 1 1 4.195441 3.270422 22.270221
358 1 1 4.105493 3.637737 22.232956
359 1 1 4.154722 3.725674 21.866564
360 1 1 4.252480 3.507037 21.571537
361 1 1 4.503737 3.703826 21.365274
362 1 1 4.575360 4.043580 21.210881
363 1 1 4.532519 4.396704 21.344551
364 1 1 4.696745 4.514288 21.666426
365 1 1 4.996274 4.305891 21.772507
366 1 1 5.281935 4.084672 21.654777
367 1 1 5.185632 3.827836 21.391793
368 1 1 5.391321 3.831033 21.072291
369 1 1 5.761153 3.752786 21.033540
370 1 1 6.076582 3.727846 20.823105
371 1 1 6.392009 3.578643 20.672626
372 1 1 6.737845 3.543771 20.519062
373 1 1 6.730594 3.291965 20.234561
374 1 1 6.702038 2.917840 20.294687
375 1 1 7.011596 2.709264 20.223483
376 1 1 7.351219 2.791797 20.372629
377 1 1 7.565912 3.083122 20.488544
378 1 1 7.925523 2.991910 20.570766
379 1 1 8.163522 2.697876 20.606828
380 1 1 8.295143 2.528031 20.293413
381 1 1 8.237470 2.186864 20.136319
382 1 1 8.552381 2.020528 20.003793
383 1 1 8.913836 1.997981 20.118867
384 1 1 9.210964 1.838721 19.943507
385 1 1 9.446086 1.573830 20.081167
386 1 1 9.636586 1.440067 20.381528
387 1 1 10.007054 1.399799 20.455909
388 1 1 10.272384 1.661087 20.380218
389 1 1 10.643802 1.613282 20.315697
390 1 1 11.019957 1.559644 20.321255
391 1 1 11.243085 1.342263 20.538878
392 1 1 11.156398 1.216989 20.887004
393 1 1 11.277463 0.942822 21.120618
394 1 1 11.334704 0.606487 21.287957
395 1 1 11.162112 0.308133 21.127967
396 1 1 11.426251 0.137267 20.914811
397 1 1 11.599478 34.985882 20.940017
398 1 1 11.528446 34.711659 21.193308
399 1 1 11.382494 34.746099 21.542466
400 1 1 11.042030 34.632460 21.667248
401 1 1 10.842799 34.779984 21.955248
402 1 1 10.576565 34.657001 22.196897
403 1 1 10.238483 34.614152 22.365018
404 1 1 9.888072 34.507759 22.263567
405 1 1 9.782675 34.445193 21.903877
406 1 1 9.464450 34.238476 21.923893
407 1 1 9.108053 34.278605 21.798310
408 1 1 8.770475 34.280271 21.623844
409 1 1 8.619363 34.560340 21.416175
410 1 1 8.305863 34.775080 21.418351
411 1 1 8.117215 34.983504 21.162673
412 1 1 7.826265 0.041310 21.143756
413 1 1 7.660493 0.311588 21.353205
414 1 1 7.505851 0.604429 21.166844
415 1 1 7.489025 0.903211 21.401037
416 1 1 7.819102 1.062244 21.501820
417 1 1 7.939946 1.070833 21.861991
418 1 1 8.082324 1.113973 22.211659
419 1 1 8.108574 1.467154 22.349405
420 1 1 7.831297 1.709098 22.254637
421 1 1 7.509877 1.623568 22.070861
422 1 1 7.499224 1.689489 21.696774
423 1 1 7.617152 1.953940 21.450688
424 1 1 7.918732 2.180974 21.407040
425 1 1 8.228938 2.125037 21.619275
426 1 1 8.462945 1.831437 21.560625
427 1 1 8.742797 1.704092 21.783932
428 1 1 9.069557 1.751660 21.595876
429 1 1 9.245526 1.667153 21.269849
430 1 1 9.588756 1.819714 21.212245
431 1 1 9.897360 1.723651 21.012408
432 1 1 10.100543 2.016457 20.880568
433 1 1 10.327754 2.292951 21.008342
434 1 1 10.232816 2.388180 21.363754
435 1 1 10.211240 2.635723 21.651255
436 1 1 10.234362 2.962992 21.842986
437 1 1 10.098057 3.281740 21.998615
438 1 1 9.877096 3.534033 22.177289
439 1 1 9.819405 3.866851 22.351369
440 1 1 9.976909 4.157003 22.539529
441 1 1 9.726754 4.429246 22.627315
442 1 1 9.385748 4.438967 22.459922
443 1 1 9.058261 4.369297 22.280204
444 1 1 9.039773 4.108708 22.004247
445 1 1 8.762599 3.859810 21.929250
446 1 1 8.424307 4.032364 21.915708
447 1 1 8.265726 4.336094 22.080027
448 1 1 7.893210 4.282744 22.132801
449 1 1 7.623464 4.535794 22.045605
450 1 1 7.272553 4.390161 22.038350
451 1 1 7.976616 21.007685 19.522633
452 1 1 8.200772 20.763013 19.337458
453 1 1 8.371904 20.792731 18.999478
454 1 1 8.505042 20.595607 18.703139
455 1 1 8.863628 20.473558 18.672803
456 1 1 9.123548 20.216200 18.775800
457 1 1 9.494417 20.183506 18.699726
458 1 1 9.550261 20.192432 18.323957
459 1 1 9.358568 20.173555 17.996394
460 1 1 9.072762 20.110941 17.753920
461 1 1 8.766542 20.067486 17.974694
462 1 1 8.393508 20.073282 18.046888
463 1 1 8.069750 19.960028 18.210455
464 1 1 7.979439 20.195835 18.494425
465 1 1 7.949725 20.317144 18.853314
466 1 1 7.977947 20.024243 19.093756
467 1 1 8.261785 20.109021 19.331765
468 1 1 8.327378 20.051508 19.701616
469 1 1 8.131607 20.008830 20.024498
470 1 1 7.785073 19.976691 20.177078
471 1 1 7.735365 19.688773 20.420045
472 1 1 7.637149 19.854759 20.747462
473 1 1 7.603508 20.233238 20.752205
474 1 1 7.720945 20.477264 21.018775
475 1 1 7.579049 20.393204 21.361119
476 1 1 7.400413 20.263864 21.670571
477 1 1 7.616301 20.088460 21.929465
478 1 1 7.486367 20.114199 22.285631
479 1 1 7.117703 20.141063 22.373754
480 1 1 6.797276 19.971803 22.488109
481 1 1 6.652675 20.064923 22.826959
482 1 1 6.603056 20.297111 23.123652
483 1 1 6.249571 20.392582 23.225306
484 1 1 6.149688 20.674624 23.459562
485 1 1 5.872865 20.886764 23.610444
486 1 1 5.605211 21.015634 23.847413
487 1 1 5.439444 20.912389 24.173390
488 1 1 5.262648 20.576021 24.173833
489 1 1 5.251201 20.414316 23.830147
490 1 1 5.034820 20.104338 23.791508
491 1 1 4.764731 20.098417 23.524269
492 1 1 4.478701 20.169119 23.284294
493 1 1 4.222757 20.447447 23.322061
494 1 1 4.215579 20.798146 23.175916
495 1 1 4.103745 21.025640 22.892826
496 1 1 4.185591 21.393679 22.940242
497 1 1 4.543230 21.412367 23.067306
498 1 1 4.803043 21.526743 23.319923
499 1 1 5.040445 21.354301 23.561386
500 1 1 5.255275 21.623986 23.721129
501 1 1 5.363073 21.971254 23.610746
502 1 1 5.724530 22.078740 23.657600
503 1 1 6.076650 21.939390 23.626082
504 1 1 6.040718 21.569642 23.546112
505 1 1 6.130475 21.490498 23.185446
506 1 1 6.397857 21.317951 22.977758
507 1 1 6.733709 21.456629 23.088988
508 1 1 6.934066 21.436790 23.411266
509 1 1 7.178985 21.683667 23.564456
510 1 1 7.227900 22.001110 23.767524
511 1 1 7.204065 22.111971 24.130211
512 1 1 6.935838 22.290124 24.331994
513 1 1 6.770549 22.540699 24.564999
514 1 1 6.399607 22.488236 24.628639
515 1 1 6.255429 22.767245 24.842570
516 1 1 6.342512 23.021666 25.111059
517 1 1 6.151842 23.169883 25.404447
518 1 1 6.421992 23.296939 25.639556
519 1 1 6.386690 23.295705 26.017911
520 1 1 6.074313 23.131497 26.158822
521 1 1 5.755959 23.311827 26.261449
522 1 1 5.479963 23.221316 26.016431
523 1 1 5.145268 23.044424 25.983438
524 1 1 4.824610 22.846650 26.033073
525 1 1 4.825316 22.481853 25.926665
526 1 1 4.496335 22.292939 25.948642
527 1 1 4.382134 22.286372 26.311016
528 1 1 4.469915 22.481859 26.624830
529 1 1 4.212846 22.545050 26.897451
530 1 1 4.178192 22.452291 27.264322
531 1 1 4.205323 22.741991 27.508736
532 1 1 3.945536 22.818611 27.775268
533 1 1 3.857690 23.048533 28.064783
534 1 1 3.542389 23.218453 28.191718
535 1 1 3.547188 23.214204 28.571664
536 1 1 3.817753 23.007782 28.740734
537 1 1 3.679335 22.796104 29.024341
538 1 1 3.542529 22.502689 29.223318
539 1 1 3.526831 22.143996 29.098846
540 1 1 3.321310 22.164398 28.779871
541 1 1 3.543455 22.201935 28.473860
542 1 1 3.475534 22.528119 28.291130
543 1 1 3.127062 22.499977 28.142216
544 1 1 2.834243 22.519040 27.900776
545 1 1 2.477759 22.439099 28.005317
546 1 1 2.334920 22.504344 28.351352
547 1 1 2.300154 22.658895 28.696758
548 1 1 2.422564 22.483530 29.010864
549 1 1 2.546628 22.215087 29.249499
550 1 1 2.925787 22.189973 29.252253
551 1 1 3.080045 22.108393 29.589816
552 1 1 3.253074 21.802346 29.734026
553 1 1 3.264689 21.422529 29.736078
554 1 1 3.616363 21.321093 29.838232
555 1 1 3.666325 21.164611 30.180894
556 1 1 3.904071 21.010945 30.434397
557 1 1 4.280335 21.011260 30.487552
558 1 1 4.451123 21.348995 30.453396
559 1 1 4.794884 21.492145 30.529136
560 1 1 5.111879 21.635063 30.682395
561 1 1 5.419418 21.593333 30.901663
562 1 1 5.737298 21.731824 30.746188
563 1 1 5.975402 22.013654 30.655201
564 1 1 6.053398 22.233146 30.354968
565 1 1 5.899625 22.093562 30.036739
566 1 1 5.797119 22.381793 29.811316
567 1 1 5.638373 22.686443 29.973760
568 1 1 5.408003 22.595237 30.261876
569 1 1 5.160170 22.756345 30.500671
570 1 1 4.839647 22.954505 30.549639
571 1 1 4.516865 23.115527 30.669154
572 1 1 4.588770 23.275760 31.006133
573 1 1 4.381479 23.076754 31.254784
574 1 1 4.013832 23.117368 31.341881
575 1 1 3.769839 22.829151 31.384286
576 1 1 3.673190 22.595729 31.100432
577 1 1 3.619844 22.682999 30.734457
578 1 1 3.379373 22.425084 30.592848
579 1 1 3.050115 22.328516 30.756139
580 1 1 2.760040 22.087956 30.805001
581 1 1 2.394684 22.059070 30.704597
582 1 1 2.249082 22.365571 30.533549
583 1 1 1.877386 22.368755 30.454605
584 1 1 1.504555 22.426775 30.499664
585 1 1 1.306090 22.460343 30.821976
586 1 1 1.032278 22.341480 31.057133
587 1 1 1.212296 22.195019 31.358037
588 1 1 1.023987 22.065955 31.661817
589 1 1 0.786719 21.860081 31.875639
590 1 1 0.708705 21.729592 32.223901
591 1 1 0.768475 21.861407 32.575258
592 1 1 0.818267 22.237713 32.557520
593 1 1 0.924497 22.558096 32.732077
594 1 1 1.149751 22.852499 32.648486
595 1 1 1.188448 23.186436 32.825656
596 1 1 1.254306 23.435529 32.546344
597 1 1 1.365155 23.441701 32.182923
598 1 1 1.146528 23.197804 31.990266
599 1 1 0.932609 23.032768 31.723055
600 1 1 0.712518 22.867126 31.461287
601 1 1 0.645450 22.942674 31.094962
602 1 1 0.619275 23.269950 30.903636
603 1 1 0.362285 23.505167 30.751882
604 1 1 0.240013 23.858040 30.681665
605 1 1 35.173743 23.895337 30.399846
606 1 1 34.950526 23.680096 30.180197
607 1 1 34.926681 23.640760 29.802992
608 1 1 35.103096 23.786283 29.499510
609 1 1 34.864424 23.785721 29.203815
610 1 1 34.661874 24.079278 29.072678
611 1 1 34.509478 24.426001 29.041708
612 1 1 34.304979 24.746230 29.035923
613 1 1 34.475203 24.978171 29.284172
614 1 1 34.852913 25.007236 29.254332
615 1 1 34.995941 25.351901 29.182575
616 1 1 0.089325 25.422612 28.934778
617 1 1 0.068941 25.117761 28.708835
618 1 1 34.932787 25.257825 28.563691
619 1 1 34.575847 25.174210 28.663701
620 1 1 34.327231 25.086897 28.389901
621 1 1 33.981138 25.086089 28.546807
622 1 1 33.806782 24.768914 28.662565
623 1 1 33.699384 24.586588 28.346934
624 1 1 33.386759 24.394420 28.445610
625 1 1 33.089010 24.229732 28.276427
626 1 1 32.953294 24.171346 27.926324
627 1 1 32.623342 24.316977 27.806643
628 1 1 32.298015 24.264924 27.995992
629 1 1 32.208653 24.015874 28.268735
630 1 1 32.447430 23.720704 28.252608
631 1 1 32.682149 23.581827 28.517221
632 1 1 32.897521 23.602700 28.829598
633 1 1 33.154279 23.504888 29.092102
634 1 1 33.203640 23.718222 29.402670
635 1 1 33.000145 23.859451 29.690843
636 1 1 32.814690 23.770576 30.010386
637 1 1 32.560694 23.768042 30.293016
638 1 1 32.463551 23.633726 30.634955
639 1 1 32.760213 23.462393 30.799384
640 1 1 32.898121 23.144776 30.955911
641 1 1 32.902109 23.072606 31.328973
642 1 1 32.746783 22.925138 31.642863
643 1 1 32.389255 23.053783 31.647745
644 1 1 32.220610 23.057383 31.988253
645 1 1 31.909980 23.079070 32.206057
646 1 1 31.534956 23.112975 32.154993
647 1 1 31.328865 23.431562 32.134288
648 1 1 31.136443 23.729272 31.997385
649 1 1 31.153957 23.775893 31.620663
650 1 1 31.257684 23.879911 31.270204
651 1 1 31.329593 23.557174 31.082934
652 1 1 31.578775 23.302744 31.215499
653 1 1 31.819454 23.384054 31.498099
654 1 1 31.968432 23.575826 31.790381
655 1 1 31.923027 23.948481 31.849259
656 1 1 31.911908 24.146955 31.525401
657 1 1 32.139178 24.448008 31.479407
658 1 1 32.435334 24.380566 31.707756
659 1 1 32.647289 24.376045 32.023120
660 1 1 33.014620 24.288701 31.980239
661 1 1 33.107266 23.921371 32.009999
662 1 1 33.088653 23.606028 31.798782
663 1 1 33.171979 23.658130 31.431710
664 1 1 33.525972 23.553775 31.341160
665 1 1 33.516777 23.174548 31.318742
666 1 1 33.833270 22.982125 31.233854
667 1 1 33.822369 22.850428 30.877572
668 1 1 33.551680 22.850871 30.610876
669 1 1 33.264669 22.620137 30.517140
670 1 1 32.971971 22.758040 30.317863
671 1 1 32.601267 22.831070 30.277305
672 1 1 32.470497 23.161009 30.141512
673 1 1 32.131706 23.250831 29.994704
674 1 1 31.779945 23.394273 30.004114
675 1 1 31.439923 23.302433 29.861459
676 1 1 31.449706 23.339781 29.483425
677 1 1 31.277423 23.151487 29.201886
678 1 1 31.090819 23.368092 28.951563
679 1 1 30.863760 23.203662 28.695034
680 1 1 31.008338 22.970973 28.431684
681 1 1 31.317397 22.855925 28.242882
682 1 1 31.409491 22.846280 27.874337
683 1 1 31.772411 22.866877 27.763589
684 1 1 31.973455 23.119361 27.964170
685 1 1 31.786414 23.441154 28.040757
686 1 1 31.853419 23.711840 27.782611
687 1 1 31.671282 24.030360 27.881460
688 1 1 31.312591 24.155614 27.874227
689 1 1 31.067231 24.060705 28.148436
690 1 1 31.167361 23.814257 28.419798
691 1 1 31.505099 23.894517 28.574367
692 1 1 31.481894 24.065547 28.912909
693 1 1 31.187902 24.299186 28.971058
694 1 1 31.087821 24.273507 29.336742
695 1 1 31.072798 24.088112 29.668107
696 1 1 31.060710 23.861498 29.972902
697 1 1 30.788121 23.606220 29.902699
698 1 1 30.528826 23.415218 30.104403
699 1 1 30.596360 23.274603 30.450909
700 1 1 30.770945 23.044291 30.697641
701 1 1 30.819135 22.851535 31.021559
702 1 1 31.042567 22.889266 31.326607
703 1 1 31.015217 22.847911 31.703358
704 1 1 31.333146 22.664552 31.801851
705 1 1 31.426913 22.326853 31.948708
706 1 1 31.701523 22.129061 32.121531
707 1 1 31.919157 21.873980 31.942731
708 1 1 32.033684 21.986087 31.598179
709 1 1 31.982615 21.837285 31.252275
710 1 1 31.664639 21.977242 31.098317
711 1 1 31.420382 21.786347 30.878550
712 1 1 31.109531 21.856266 30.671469
713 1 1 30.781037 21.893609 30.484125
714 1 1 30.524224 21.613580 30.489645
715 1 1 30.546021 21.235220 30.517373
716 1 1 30.472216 20.868938 30.448161
717 1 1 30.361696 20.679094 30.758232
718 1 1 30.434691 20.453220 31.054969
719 1 1 30.803167 20.457577 31.147737
720 1 1 30.933404 20.803230 31.058503
721 1 1 31.053522 21.130061 31.210663
722 1 1 30.960360 21.417765 31.440767
723 1 1 30.640684 21.589308 31.553818
724 1 1 30.286807 21.723925 31.586204
725 1 1 30.047518 21.447289 31.483182
726 1 1 30.087597 21.096617 31.623976
727 1 1 30.357239 20.836054 31.685620
728 1 1 30.659348 20.629053 31.787015
729 1 1 30.917788 20.353899 31.743443
730 1 1 30.893280 19.982392 31.667401
731 1 1 30.834821 19.736160 31.383936
732 1 1 30.634461 19.773764 31.063246
733 1 1 30.285238 19.769609 30.913492
734 1 1 29.914722 19.685932 30.924242
735 1 1 29.610553 19.762238 30.709629
736 1 1 29.296236 19.967370 30.769002
737 1 1 29.291820 20.159700 31.096706
738 1 1 29.526729 20.439054 31.202437
739 1 1 29.471417 20.738049 31.430347
740 1 1 29.551802 20.857169 31.782126
741 1 1 29.394450 21.156900 31.954757
742 1 1 29.265015 21.447827 32.162142
743 1 1 29.515424 21.706233 32.284294
744 1 1 29.408796 22.057333 32.383082
745 1 1 29.261707 22.405926 32.347765
746 1 1 29.445951 22.630366 32.102651
747 1 1 29.646887 22.448855 31.836046
748 1 1 29.734486 22.092604 31.736992
749 1 1 29.753404 21.992620 31.370870
750 1 1 29.716622 22.205942 31.058555
751 1 1 29.836729 22.224497 30.698513
752 1 1 29.899059 21.872295 30.570184
753 1 1 29.702889 21.748923 30.269025
754 1 1 29.450935 21.880270 30.016702
755 1 1 29.197541 21.852825 29.734853
756 1 1 29.120680 21.571237 29.491542
757 1 1 28.816768 21.343248 29.499223
758 1 1 28.601982 21.451924 29.205189
759 1 1 28.282425 21.625807 29.314952
760 1 1 28.236064 21.750018 29.671073
761 1 1 28.508510 21.958194 29.834890
762 1 1 28.747307 22.115420 30.085202
763 1 1 29.014458 22.134235 30.354788
764 1 1 29.170863 22.288775 30.664715
765 1 1 29.030157 22.625484 30.770685
766 1 1 28.829273 22.826766 30.518631
767 1 1 28.899363 22.696479 30.168612
768 1 1 29.260891 22.776418 30.083131
769 1 1 29.374819 23.137450 30.050324
770 1 1 29.541060 23.323875 29.763951
771 1 1 29.833595 23.497456 29.594561
772 1 1 29.755154 23.514205 29.223122
773 1 1 29.934363 23.677145 28.930317
774 1 1 29.835581 24.014963 28.787067
775 1 1 29.644000 24.288979 28.606478
776 1 1 29.691002 24.253777 28.231043
777 1 1 29.460107 24.253288 27.929236
778 1 1 29.467738 23.956061 27.692597
779 1 1 29.319094 23.608888 27.734740
780 1 1 29.017632 23.496135 27.936748
781 1 1 29.072637 23.554887 28.308127
782 1 1 29.027931 23.465095 28.674650
783 1 1 28.956782 23.570738 29.032668
784 1 1 29.018157 23.794896 29.333311
785 1 1 29.084619 23.811949 29.707065
786 1 1 29.282864 24.086029 29.880209
787 1 1 29.070420 24.302543 30.109097
788 1 1 28.722752 24.454953 30.091829
789 1 1 28.669639 24.778939 30.283171
790 1 1 28.544327 25.051251 30.516715
791 1 1 28.758670 25.300677 30.707093
792 1 1 28.641751 25.661902 30.691377
793 1 1 28.356564 25.725367 30.448394
794 1 1 28.005664 25.688251 30.307356
795 1 1 27.673872 25.749043 30.132375
796 1 1 27.454044 25.542252 29.901479
797 1 1 27.284391 25.602797 29.566886
798 1 1 27.079254 25.847685 29.361098