LAMMPS data file for polymer system

27000 atoms
26940 bonds

1 atom types
1 bond types

0.0 35.1858945654143 xlo xhi
0.0 35.1858945654143 ylo yhi
0.0 35.1858945654143 zlo zhi

Masses

1 5.65487

Atoms

1 1 1 31.050795 0.645723 22.409587
2 1 1 31.260639 0.554961 22.713113
3 1 1 31.391439 0.622938 23.063356
4 1 1 31.339052 0.466452 23.405654
5 1 1 31.026205 0.446557 23.620435
6 1 1 30.951512 0.779283 23.788106
7 1 1 30.818011 1.120651 23.888336
8 1 1 30.849205 1.401858 24.142008
9 1 1 30.715189 1.738520 24.027562
10 1 1 30.721996 2.096191 24.155725
11 1 1 30.859300 2.185792 24.498535
12 1 1 30.940454 2.274112 24.859109
13 1 1 30.976453 2.557047 25.110210
14 1 1 30.818400 2.441371 25.435845
15 1 1 30.762083 2.189168 25.714452
16 1 1 30.554777 2.306501 26.010522
17 1 1 30.352133 2.618332 26.088602
18 1 1 30.503186 2.945965 26.207932
19 1 1 30.791702 3.148766 26.066401
20 1 1 31.152373 3.146122 25.946780
21 1 1 31.367723 3.458988 25.958590
22 1 1 31.416801 3.631191 25.623422
23 1 1 31.622031 3.917004 25.479926
24 1 1 31.988561 3.817446 25.491921
25 1 1 32.210761 3.585114 25.694526
26 1 1 32.407350 3.394755 25.958185
27 1 1 32.711571 3.428524 26.183373
28 1 1 33.037815 3.236986 26.147625
29 1 1 33.239605 3.286870 25.829517
30 1 1 33.284814 3.656779 25.755194
31 1 1 33.423749 3.983441 25.619589
32 1 1 33.163740 4.251375 25.690349
33 1 1 33.260964 4.617613 25.661760
34 1 1 33.255989 4.798102 25.327397
35 1 1 33.237194 4.779132 24.948336
36 1 1 33.452029 4.797810 24.635451
37 1 1 33.662736 5.064109 24.464901
38 1 1 33.757967 5.359432 24.684253
39 1 1 33.858594 5.484416 25.028714
40 1 1 33.921823 5.659754 25.359862
41 1 1 33.973521 5.412398 25.643661
42 1 1 33.910100 5.043644 25.577341
43 1 1 34.196423 4.871687 25.396095
44 1 1 34.528606 4.724148 25.506938
45 1 1 34.831857 4.944248 25.443734
46 1 1 34.867619 5.292730 25.296487
47 1 1 35.104217 5.266216 25.000314
48 1 1 0.213268 5.212665 24.766778
49 1 1 0.464685 5.304913 25.036371
50 1 1 0.798900 5.415927 24.893626
51 1 1 1.142867 5.285395 24.988747
52 1 1 1.124125 5.026174 25.265972
53 1 1 1.467691 4.863854 25.269738
54 1 1 1.764225 4.637787 25.342962
55 1 1 1.905481 4.316636 25.196987
56 1 1 2.154229 4.190373 24.938953
57 1 1 2.152481 4.369010 24.603564
58 1 1 2.052468 4.735289 24.588176
59 1 1 2.306271 4.939196 24.392202
60 1 1 2.676967 5.013184 24.431069
61 1 1 2.828129 4.729590 24.633861
62 1 1 3.007646 4.399503 24.577153
63 1 1 2.875466 4.101787 24.772841
64 1 1 3.050079 3.931890 25.064466
65 1 1 3.345001 4.053306 25.271056
66 1 1 3.543922 3.919964 25.566098
67 1 1 3.445951 3.554180 25.597775
68 1 1 3.426111 3.281559 25.861753
69 1 1 3.708777 3.111674 26.050536
70 1 1 4.039190 3.110628 26.238222
71 1 1 4.013076 3.122010 26.617152
72 1 1 4.269951 2.878088 26.754691
73 1 1 4.511619 3.086648 26.960844
74 1 1 4.454446 3.362562 27.215801
75 1 1 4.229791 3.423896 27.516081
76 1 1 4.270671 3.171105 27.796840
77 1 1 4.308029 3.030397 28.147847
78 1 1 4.336777 3.188028 28.492413
79 1 1 4.428910 3.033316 28.827041
80 1 1 4.449628 2.699253 29.006964
81 1 1 4.579427 2.348945 29.076511
82 1 1 4.746786 2.106094 29.316124
83 1 1 5.020159 1.906811 29.143054
84 1 1 5.313433 1.804983 28.923916
85 1 1 5.579123 1.562952 28.800507
86 1 1 5.881075 1.333506 28.824588
87 1 1 6.184128 1.561939 28.805170
88 1 1 6.518516 1.381663 28.795947
89 1 1 6.777272 1.117912 28.707172
90 1 1 7.144588 1.212095 28.731846
91 1 1 7.206242 1.515812 28.511949
92 1 1 7.461564 1.494293 28.231329
93 1 1 7.443355 1.634964 27.878795
94 1 1 7.617343 1.466968 27.585698
95 1 1 7.398964 1.441431 27.275765
96 1 1 7.136210 1.414483 27.002572
97 1 1 6.950788 1.730155 26.900740
98 1 1 6.871751 2.097606 26.844765
99 1 1 6.496829 2.158599 26.834127
100 1 1 6.432766 2.496733 26.995254
101 1 1 6.420438 2.867837 27.076062
102 1 1 6.289019 3.217646 27.007052
103 1 1 6.206557 3.553177 26.848878
104 1 1 6.328033 3.889170 26.978308
105 1 1 6.547017 4.162506 26.830884
106 1 1 6.866739 4.241624 26.641364
107 1 1 6.805483 4.157530 26.275884
108 1 1 6.992711 3.858944 26.133785
109 1 1 6.925325 3.791800 25.765885
110 1 1 6.671746 3.991250 25.565093
111 1 1 6.324515 3.907294 25.435548
112 1 1 6.071873 3.944029 25.154083
113 1 1 5.858748 4.217281 24.998163
114 1 1 5.801499 4.199442 24.622924
115 1 1 5.551233 4.319920 24.363595
116 1 1 5.643957 4.453122 24.019997
117 1 1 6.006960 4.370473 23.943852
118 1 1 6.010880 4.099314 23.677661
119 1 1 6.238654 3.843291 23.513432
120 1 1 6.500421 3.661161 23.306776
121 1 1 6.873063 3.734430 23.293739
122 1 1 7.211075 3.832406 23.437086
123 1 1 7.504532 3.650213 23.278693
124 1 1 7.520639 3.338947 23.061312
125 1 1 7.652018 3.012824 22.917150
126 1 1 7.838006 2.756142 23.126728
127 1 1 7.802696 2.841784 23.495264
128 1 1 7.438978 2.831430 23.604818
129 1 1 7.084698 2.833282 23.467406
130 1 1 6.741290 2.672153 23.489948
131 1 1 6.622054 2.332256 23.610997
132 1 1 6.822262 2.023567 23.706013
133 1 1 6.891225 1.975818 24.076640
134 1 1 6.632170 1.940944 24.352456
135 1 1 6.827709 1.995771 24.673639
136 1 1 7.130172 2.208356 24.585755
137 1 1 7.467221 2.078179 24.703451
138 1 1 7.601098 2.197463 25.038486
139 1 1 7.418377 2.334525 25.342175
140 1 1 7.191497 2.420971 25.634498
141 1 1 7.322482 2.739463 25.795141
142 1 1 7.561532 2.710016 26.089059
143 1 1 7.765378 2.613153 26.394779
144 1 1 7.788043 2.901243 26.641538
145 1 1 7.929542 3.250948 26.595876
146 1 1 8.304345 3.301500 26.632849
147 1 1 8.552180 3.373009 26.353808
148 1 1 8.805384 3.509703 26.105609
149 1 1 9.044002 3.434474 25.819599
150 1 1 9.211249 3.182035 25.590027
151 1 1 9.107597 3.134980 25.227478
152 1 1 8.826294 2.969727 25.032644
153 1 1 8.803976 2.614404 24.899799
154 1 1 8.835881 2.275364 24.731176
155 1 1 8.558304 2.229996 24.475651
156 1 1 8.556872 2.149715 24.104231
157 1 1 8.475749 2.441581 23.874811
158 1 1 8.246864 2.299095 23.607025
159 1 1 8.001766 2.035676 23.729243
160 1 1 7.911821 1.733196 23.517546
161 1 1 7.698411 1.610053 23.228251
162 1 1 7.543191 1.313020 23.049146
163 1 1 7.657714 1.000631 23.232715
164 1 1 7.923670 0.755331 23.348886
165 1 1 7.829435 0.390781 23.400102
166 1 1 7.598957 0.139335 23.232607
167 1 1 7.915475 35.160879 23.363776
168 1 1 7.840251 35.109559 22.994848
169 1 1 8.209659 0.010674 23.014021
170 1 1 8.512482 35.038313 23.180313
171 1 1 8.815406 35.106211 23.399463
172 1 1 8.869022 0.295980 23.379424
173 1 1 9.177920 0.393356 23.578170
174 1 1 9.367801 0.072829 23.653053
175 1 1 9.379932 34.895352 23.763571
176 1 1 9.725904 35.039502 23.700932
177 1 1 10.083837 35.072643 23.824162
178 1 1 10.317641 35.045829 23.525805
179 1 1 10.268215 0.021391 23.185380
180 1 1 10.065778 0.250410 23.411144
181 1 1 10.272553 0.526651 23.570315
182 1 1 10.362519 0.839099 23.373636
183 1 1 10.424950 1.153300 23.169235
184 1 1 10.263444 1.464024 23.021700
185 1 1 9.936911 1.640309 22.939852
186 1 1 9.849316 1.959064 23.127263
187 1 1 9.606328 1.847450 23.397261
188 1 1 9.531856 1.481572 23.467881
189 1 1 9.268411 1.299722 23.672643
190 1 1 8.928374 1.466199 23.705201
191 1 1 8.630785 1.540482 23.929528
192 1 1 8.410071 1.231601 23.946200
193 1 1 8.488736 1.001624 24.238300
194 1 1 8.859899 1.051438 24.302772
195 1 1 9.175950 0.845126 24.346898
196 1 1 9.423882 0.851775 24.059000
197 1 1 9.771662 0.984993 23.983488
198 1 1 10.048551 0.839151 24.199040
199 1 1 10.276609 0.537219 24.234061
200 1 1 10.436503 0.282874 24.466747
201 1 1 10.393072 35.161116 24.685525
202 1 1 10.261511 34.808469 24.737795
203 1 1 10.332134 34.439794 24.678713
204 1 1 10.043561 34.192941 24.664948
205 1 1 9.729931 34.018524 24.789909
206 1 1 9.632310 33.727292 25.013636
207 1 1 9.825679 33.548035 25.287269
208 1 1 9.671745 33.309719 25.540073
209 1 1 9.899473 33.057989 25.710869
210 1 1 9.676625 32.770681 25.821291
211 1 1 9.420356 32.553004 25.644251
212 1 1 9.346235 32.404814 25.302278
213 1 1 9.195580 32.554433 24.987131
214 1 1 9.085046 32.913940 25.041327
215 1 1 8.900086 33.131166 25.292330
216 1 1 8.707932 33.389775 25.090840
217 1 1 8.650068 33.626317 24.799121
218 1 1 8.382637 33.894802 24.827347
219 1 1 8.097372 33.925241 25.076540
220 1 1 7.946936 34.071197 25.393504
221 1 1 8.072920 33.992283 25.743219
222 1 1 8.186272 34.327128 25.882610
223 1 1 8.197987 34.600667 25.619097
224 1 1 8.445540 34.886862 25.653883
225 1 1 8.726132 34.878202 25.397772
226 1 1 9.043978 35.084477 25.426484
227 1 1 9.126815 0.243278 25.563317
228 1 1 9.358255 0.440057 25.335033
229 1 1 9.185333 0.588531 25.030972
230 1 1 8.897651 0.836570 25.020203
231 1 1 8.613971 0.821444 25.272585
232 1 1 8.449396 0.483778 25.330003
233 1 1 8.272358 0.385421 25.008470
234 1 1 8.306504 0.414235 24.631106
235 1 1 8.287823 0.433395 24.252049
236 1 1 7.977000 0.419868 24.033860
237 1 1 7.598244 0.409532 24.062789
238 1 1 7.401775 0.335170 24.379444
239 1 1 7.122968 0.078796 24.348799
240 1 1 7.074924 35.109346 24.692252
241 1 1 7.026742 35.144426 24.316955
242 1 1 7.184377 34.899543 24.072858
243 1 1 7.464061 34.687885 24.219070
244 1 1 7.503193 34.322139 24.123683
245 1 1 7.341862 33.995191 24.230815
246 1 1 7.250167 33.769937 24.522795
247 1 1 7.298484 33.395997 24.475525
248 1 1 7.260719 33.078363 24.270385
249 1 1 6.968342 33.001905 24.040016
250 1 1 6.902178 32.735754 23.776984
251 1 1 6.882916 32.626042 23.413676
252 1 1 7.000444 32.330033 23.206395
253 1 1 6.748002 32.046010 23.204303
254 1 1 6.376745 31.998586 23.138586
255 1 1 5.998985 31.987945 23.098779
256 1 1 5.863931 31.960721 23.452925
257 1 1 5.615613 32.185624 23.632248
258 1 1 5.261638 32.098963 23.524584
259 1 1 4.983338 31.911168 23.346589
260 1 1 4.862031 31.593945 23.176137
261 1 1 4.689033 31.681635 22.849361
262 1 1 4.908692 31.876787 22.608393
263 1 1 5.283294 31.908940 22.553265
264 1 1 5.615508 31.811869 22.396386
265 1 1 5.862522 31.574957 22.231289
266 1 1 6.080081 31.263853 22.214478
267 1 1 6.158778 30.897259 22.152709
268 1 1 6.092137 30.559885 21.991038
269 1 1 6.178915 30.254029 21.782900
270 1 1 6.112218 29.962619 21.548312
271 1 1 6.163551 29.589666 21.599995
272 1 1 6.376028 29.421370 21.333667
273 1 1 6.631833 29.142053 21.364421
274 1 1 6.634005 28.769433 21.289927
275 1 1 6.491538 28.546723 21.016974
276 1 1 6.135172 28.415372 21.004712
277 1 1 6.032473 28.372268 20.641401
278 1 1 6.279152 28.449810 20.362948
279 1 1 6.280111 28.826482 20.312778
280 1 1 6.516695 28.968970 20.051769
281 1 1 6.690247 29.158402 19.771778
282 1 1 6.628079 29.310554 19.429163
283 1 1 6.824085 29.322816 19.103846
284 1 1 6.808814 29.459289 18.749527
285 1 1 6.926870 29.739014 18.521017
286 1 1 7.174023 29.778207 18.235046
287 1 1 7.550695 29.821429 18.260532
288 1 1 7.660970 29.907658 18.613808
289 1 1 7.860650 29.945884 18.934848
290 1 1 7.879740 29.694985 19.219602
291 1 1 8.225701 29.675610 19.375602
292 1 1 8.525972 29.884549 19.478469
293 1 1 8.694425 29.733895 19.783963
294 1 1 8.949285 29.633770 20.047442
295 1 1 8.837664 29.449418 20.360420
296 1 1 8.457836 29.450653 20.371814
297 1 1 8.113024 29.317043 20.459293
298 1 1 7.899094 29.464097 20.736798
299 1 1 7.537433 29.510360 20.629743
300 1 1 7.388628 29.677054 20.322383
301 1 1 7.257968 30.009764 20.193418
302 1 1 7.460888 30.326179 20.249145
303 1 1 7.549915 30.453952 20.595769
304 1 1 7.597793 30.436291 20.972327
305 1 1 7.439381 30.605837 21.273258
306 1 1 7.220651 30.469953 21.552709
307 1 1 7.075434 30.153032 21.703949
308 1 1 7.040450 29.775665 21.731700
309 1 1 6.946470 29.705828 22.093212
310 1 1 7.105047 29.847238 22.408262
311 1 1 7.438292 29.999268 22.307093
312 1 1 7.817133 29.980788 22.330286
313 1 1 8.106629 30.224149 22.367264
314 1 1 8.422247 30.036825 22.465728
315 1 1 8.741783 30.023034 22.260529
316 1 1 8.997948 29.747184 22.208703
317 1 1 9.136804 29.629286 21.875208
318 1 1 9.463008 29.455208 21.787531
319 1 1 9.658918 29.143148 21.694588
320 1 1 9.987392 29.245223 21.533078
321 1 1 10.247231 29.350973 21.789399
322 1 1 10.409826 29.301809 22.129319
323 1 1 10.638749 29.124868 22.375664
324 1 1 11.018134 29.145456 22.369089
325 1 1 11.335686 29.343966 22.304635
326 1 1 11.502229 29.483389 21.992827
327 1 1 11.874214 29.467784 21.916775
328 1 1 12.212020 29.293780 21.913630
329 1 1 12.433972 29.169128 22.195764
330 1 1 12.721888 29.029903 22.400996
331 1 1 12.744914 29.216594 22.731172
332 1 1 12.617834 29.513395 22.931571
333 1 1 12.671413 29.876330 22.832539
334 1 1 12.419106 30.112506 22.990533
335 1 1 12.079452 29.947884 22.946545
336 1 1 11.761283 29.754801 22.869817
337 1 1 11.506466 29.940890 22.658063
338 1 1 11.305964 29.985555 22.338370
339 1 1 11.121536 30.311713 22.275070
340 1 1 11.251732 30.548514 22.007910
341 1 1 11.631698 30.549113 22.012990
342 1 1 11.806502 30.365176 22.295852
343 1 1 12.051367 30.080356 22.353458
344 1 1 12.314303 29.986514 22.095662
345 1 1 12.276912 30.156565 21.757898
346 1 1 12.451435 30.491551 21.799444
347 1 1 12.667686 30.722656 21.589143
348 1 1 12.721859 31.056320 21.762733
349 1 1 12.461214 31.267737 21.940966
350 1 1 12.424473 31.311713 22.316621
351 1 1 12.421036 31.612065 22.549380
352 1 1 12.389116 31.725906 22.910519
353 1 1 12.424868 32.104210 22.913287
354 1 1 12.513145 32.456872 22.802667
355 1 1 12.320148 32.707722 23.012967
356 1 1 12.501784 33.023145 23.122133
357 1 1 12.534884 33.090931 23.494570
358 1 1 12.825006 32.987567 23.717158
359 1 1 13.090191 33.162100 23.926002
360 1 1 13.233281 33.168279 24.277977
361 1 1 13.431657 33.306111 24.571319
362 1 1 13.231129 33.380550 24.885401
363 1 1 13.014023 33.565075 25.136828
364 1 1 12.803589 33.876330 25.193729
365 1 1 12.872871 34.246255 25.246221
366 1 1 12.801007 34.611861 25.320840
367 1 1 12.534550 34.778955 25.534101
368 1 1 12.406878 34.717120 25.886630
369 1 1 12.162725 34.996487 25.968751
370 1 1 11.931780 35.098689 26.252686
371 1 1 11.991936 34.869901 26.550070
372 1 1 12.085362 34.531859 26.696356
373 1 1 12.392961 34.382724 26.530400
374 1 1 12.698326 34.467949 26.739897
375 1 1 12.903776 34.235174 26.959000
376 1 1 13.238641 34.398976 27.032722
377 1 1 13.558453 34.294252 27.209223
378 1 1 13.685780 34.335483 27.564874
379 1 1 13.983139 34.163168 27.727003
380 1 1 14.286734 34.354742 27.851620
381 1 1 14.631855 34.217330 27.771559
382 1 1 14.691946 33.929821 27.530462
383 1 1 14.906089 33.678045 27.342974
384 1 1 15.104733 33.370074 27.443446
385 1 1 14.961360 33.019137 27.417231
386 1 1 14.941241 32.815167 27.097244
387 1 1 15.262371 32.722003 26.916700
388 1 1 15.604634 32.591034 27.017213
389 1 1 15.720822 32.828729 27.289979
390 1 1 15.866550 32.949681 27.619424
391 1 1 15.960508 33.314393 27.669991
392 1 1 16.164514 33.375283 27.984752
393 1 1 16.447059 33.550535 28.168748
394 1 1 16.518947 33.615882 28.536120
395 1 1 16.831557 33.583505 28.749724
396 1 1 17.050788 33.519724 29.053484
397 1 1 17.350856 33.296517 29.120843
398 1 1 17.241817 32.933951 29.153342
399 1 1 17.046825 32.885520 29.475883
400 1 1 16.879759 32.544431 29.463719
401 1 1 16.696914 32.217738 29.528826
402 1 1 16.726347 31.894721 29.726800
403 1 1 16.500266 31.945848 30.027921
404 1 1 16.514848 31.644876 30.259444
405 1 1 16.665736 31.681863 30.606236
406 1 1 16.982464 31.770827 30.796416
407 1 1 17.102366 32.103857 30.934672
408 1 1 17.272710 32.433026 31.018519
409 1 1 17.307521 32.682031 31.303448
410 1 1 17.241342 32.561253 31.657613
411 1 1 17.094509 32.210955 31.669074
412 1 1 17.044210 31.835616 31.637600
413 1 1 16.992180 31.460929 31.673686
414 1 1 16.671328 31.342601 31.507997
415 1 1 16.567644 31.510045 31.183017
416 1 1 16.459432 31.871577 31.138463
417 1 1 16.114026 31.853178 30.981122
418 1 1 15.960775 31.514095 31.058172
419 1 1 15.753958 31.227613 30.918336
420 1 1 15.692991 30.861174 30.998372
421 1 1 15.378363 30.657102 30.937022
422 1 1 15.040900 30.502372 30.855922
423 1 1 14.723715 30.361296 30.701354
424 1 1 14.533853 30.180575 30.426231
425 1 1 14.261145 30.310112 30.195470
426 1 1 13.892563 30.228843 30.239541
427 1 1 13.748446 29.929876 30.054477
428 1 1 13.528864 29.657321 29.906497
429 1 1 13.348619 29.440921 29.651384
430 1 1 13.272523 29.116517 29.468707
431 1 1 13.118083 28.779562 29.384984
432 1 1 12.749328 28.783251 29.293298
433 1 1 12.437679 28.764400 29.076689
434 1 1 12.101909 28.630613 29.193991
435 1 1 11.881595 28.329274 29.265101
436 1 1 11.656772 28.214150 29.549004
437 1 1 11.364065 28.126449 29.774905
438 1 1 11.206332 27.941318 30.066875
439 1 1 10.899741 27.765348 29.927459
440 1 1 10.963098 27.390681 29.924296
441 1 1 11.285806 27.244389 30.061622
442 1 1 11.531857 27.460057 30.254874
443 1 1 11.486388 27.579781 30.612642
444 1 1 11.645380 27.515126 30.951672
445 1 1 11.436874 27.600947 31.257548
446 1 1 11.085089 27.459841 31.284689
447 1 1 10.815833 27.725382 31.321956
448 1 1 10.869566 28.077542 31.454230
449 1 1 10.957172 28.313347 31.739047
450 1 1 11.108651 28.492964 32.037697
451 1 1 6.225291 6.417915 12.668952
452 1 1 6.393906 6.077386 12.665903
453 1 1 6.406453 5.920727 13.011880
454 1 1 6.578984 6.169770 13.241250
455 1 1 6.489586 6.530444 13.320762
456 1 1 6.763274 6.793092 13.298149
457 1 1 7.052737 6.997673 13.161191
458 1 1 7.262627 7.084255 13.465903
459 1 1 7.096764 6.986096 13.793400
460 1 1 6.997303 6.623573 13.848939
461 1 1 7.142251 6.321608 13.669476
462 1 1 7.232857 6.368886 13.303477
463 1 1 7.181009 6.086088 13.055008
464 1 1 7.367028 5.861133 12.811713
465 1 1 7.625317 5.611103 12.934886
466 1 1 7.517967 5.261019 13.036460
467 1 1 7.206339 5.053971 12.969987
468 1 1 7.113584 5.024081 12.602695
469 1 1 7.017101 4.973166 12.238691
470 1 1 6.652467 5.078882 12.222372
471 1 1 6.416288 5.253472 11.981254
472 1 1 6.273759 5.223395 11.630283
473 1 1 5.968266 5.315769 11.424028
474 1 1 5.690239 5.403353 11.180246
475 1 1 5.750205 5.476389 10.812184
476 1 1 6.045804 5.711126 10.768370
477 1 1 6.355943 5.905830 10.666860
478 1 1 6.643056 5.749974 10.860960
479 1 1 6.564469 5.796463 11.229827
480 1 1 6.690854 5.982860 11.535904
481 1 1 6.849878 5.846686 11.853028
482 1 1 7.194668 5.934196 11.986678
483 1 1 7.545764 5.896918 12.127183
484 1 1 7.871408 5.773689 12.279401
485 1 1 8.211314 5.616885 12.344798
486 1 1 8.590046 5.642498 12.327310
487 1 1 8.724479 5.679402 11.973805
488 1 1 9.074891 5.811383 11.909055
489 1 1 9.334323 5.548724 11.999085
490 1 1 9.422456 5.273884 12.246259
491 1 1 9.276907 5.018739 12.487333
492 1 1 8.899375 5.059979 12.500342
493 1 1 8.746247 5.141918 12.838333
494 1 1 8.680402 4.831943 13.048047
495 1 1 8.311057 4.840387 13.137002
496 1 1 8.216895 5.205202 13.186436
497 1 1 8.021274 5.398033 13.449016
498 1 1 8.221373 5.714785 13.512489
499 1 1 8.500664 5.750666 13.767653
500 1 1 8.543352 5.880695 14.122153
501 1 1 8.251247 6.104733 14.216397
502 1 1 8.240760 6.421468 14.426085
503 1 1 8.593059 6.500575 14.544521
504 1 1 8.910828 6.698478 14.479269
505 1 1 9.167516 6.796989 14.216960
506 1 1 9.235095 6.580540 13.912029
507 1 1 9.260984 6.496256 13.542399
508 1 1 9.478111 6.761304 13.378065
509 1 1 9.689386 7.042991 13.235184
510 1 1 10.037445 6.982101 13.095370
511 1 1 10.376908 7.087710 13.229578
512 1 1 10.669954 7.186536 13.450388
513 1 1 10.932842 6.977577 13.628225
514 1 1 11.146867 6.763509 13.398511
515 1 1 11.402712 6.483634 13.423266
516 1 1 11.722845 6.542904 13.227301
517 1 1 11.946787 6.535474 12.920389
518 1 1 12.047780 6.747352 12.621544
519 1 1 11.890604 6.712424 12.277342
520 1 1 11.874905 6.351972 12.158060
521 1 1 11.907560 6.223306 11.802001
522 1 1 11.706944 6.307480 11.490444
523 1 1 11.726792 6.660757 11.351876
524 1 1 12.052499 6.810686 11.226035
525 1 1 12.195634 7.012030 10.937291
526 1 1 11.914132 7.167409 10.734772
527 1 1 11.590928 7.140443 10.536753
528 1 1 11.478392 6.957740 10.223136
529 1 1 11.216836 6.716051 10.090566
530 1 1 10.947095 6.504996 9.925958
531 1 1 10.786829 6.294554 9.653141
532 1 1 10.670448 6.407740 9.309565
533 1 1 10.777727 6.691839 9.081139
534 1 1 10.770366 6.913952 8.772899
535 1 1 10.524003 7.169397 8.637055
536 1 1 10.453467 7.149487 8.264190
537 1 1 10.170079 7.107447 8.014542
538 1 1 10.143839 7.420760 7.801126
539 1 1 10.344517 7.743286 7.790851
540 1 1 10.685925 7.802636 7.946795
541 1 1 10.954312 7.595863 8.118880
542 1 1 11.001748 7.741870 8.466489
543 1 1 11.090698 8.066584 8.642694
544 1 1 10.921641 8.377776 8.780459
545 1 1 10.672344 8.607288 8.608485
546 1 1 10.299958 8.652330 8.669315
547 1 1 10.124745 8.319384 8.615958
548 1 1 9.782498 8.392468 8.467884
549 1 1 9.650992 8.583321 8.166751
550 1 1 9.711740 8.737407 7.824747
551 1 1 9.933360 9.010761 7.681352
552 1 1 9.775990 9.167157 7.372847
553 1 1 9.878329 9.294788 7.029864
554 1 1 10.026196 9.132290 6.719816
555 1 1 10.227367 9.363030 6.494674
556 1 1 10.058159 9.702448 6.470928
557 1 1 10.009944 10.057747 6.345077
558 1 1 9.741170 10.066082 6.076579
559 1 1 9.483637 10.344721 6.097475
560 1 1 9.327955 10.683589 6.170494
561 1 1 9.052693 10.820695 6.393727
562 1 1 9.030409 11.199978 6.386834
563 1 1 9.241819 11.456392 6.202558
564 1 1 9.361139 11.705041 6.463970
565 1 1 9.635853 11.960243 6.402292
566 1 1 9.990887 12.095705 6.403333
567 1 1 10.236860 11.959667 6.147616
568 1 1 10.584856 12.087773 6.230606
569 1 1 10.944098 12.192926 6.296092
570 1 1 11.269730 11.998160 6.316822
571 1 1 11.494233 11.732452 6.163858
572 1 1 11.455302 11.707757 5.786665
573 1 1 11.587686 11.564165 5.460696
574 1 1 11.382261 11.518458 5.144293
575 1 1 11.542682 11.258761 4.917968
576 1 1 11.875668 11.286114 4.736936
577 1 1 12.240324 11.378903 4.683873
578 1 1 12.466990 11.311123 4.386504
579 1 1 12.748981 11.093045 4.254887
580 1 1 12.807927 10.739800 4.381944
581 1 1 12.545498 10.579411 4.605116
582 1 1 12.277190 10.347755 4.468197
583 1 1 11.999388 10.176462 4.662837
584 1 1 11.680475 9.985109 4.584873
585 1 1 11.377485 9.765378 4.519185
586 1 1 11.179029 9.445052 4.470122
587 1 1 11.352971 9.135002 4.335910
588 1 1 11.648671 9.055348 4.560892
589 1 1 11.579620 8.715962 4.717255
590 1 1 11.584740 8.701184 5.096933
591 1 1 11.250212 8.668725 5.274238
592 1 1 10.900016 8.528151 5.318982
593 1 1 10.577376 8.713557 5.241990
594 1 1 10.569008 8.920283 4.923252
595 1 1 10.485939 9.289879 4.893281
596 1 1 10.318824 9.406681 4.572610
597 1 1 10.183979 9.758390 4.622786
598 1 1 10.321792 10.031308 4.848448
599 1 1 10.396125 10.028609 5.221097
600 1 1 10.759722 10.090241 5.312742
601 1 1 11.097639 10.228068 5.418648
602 1 1 11.327375 9.943620 5.522138
603 1 1 11.376220 9.672827 5.260059
604 1 1 11.567701 9.420944 5.049607
605 1 1 11.941632 9.488519 5.052769
606 1 1 12.208956 9.219350 5.030729
607 1 1 12.490326 9.108387 4.800689
608 1 1 12.511041 9.212711 4.435878
609 1 1 12.451071 9.025195 4.110852
610 1 1 12.400568 8.654433 4.044635
611 1 1 12.451891 8.509533 3.697115
612 1 1 12.828761 8.509371 3.648441
613 1 1 13.102786 8.247923 3.679339
614 1 1 13.423295 8.339630 3.861722
615 1 1 13.467640 8.562511 4.166284
616 1 1 13.658300 8.454952 4.476896
617 1 1 14.010270 8.338630 4.393313
618 1 1 14.247269 8.597762 4.248116
619 1 1 14.084511 8.743722 3.937302
620 1 1 14.070839 8.821809 3.565663
621 1 1 14.225799 8.533280 3.372949
622 1 1 14.334149 8.245145 3.595747
623 1 1 14.581393 8.102975 3.846860
624 1 1 14.785180 8.258012 4.127635
625 1 1 14.945966 8.334450 4.463351
626 1 1 14.763926 8.423113 4.784910
627 1 1 14.456892 8.619607 4.892242
628 1 1 14.511310 8.887587 5.156108
629 1 1 14.881361 8.969852 5.182458
630 1 1 14.991624 8.891305 5.537524
631 1 1 14.753897 8.965199 5.824623
632 1 1 14.583110 9.042456 6.155173
633 1 1 14.286652 9.278011 6.187210
634 1 1 13.914855 9.230236 6.249534
635 1 1 13.831991 9.471452 6.531223
636 1 1 13.918427 9.837072 6.588239
637 1 1 14.097851 10.061089 6.339194
638 1 1 14.021068 10.169363 5.983131
639 1 1 14.089347 10.362934 5.663337
640 1 1 14.451820 10.311441 5.561542
641 1 1 14.694726 10.027286 5.629753
642 1 1 14.545132 9.687743 5.547700
643 1 1 14.271772 9.702792 5.284170
644 1 1 14.425797 9.661623 4.939233
645 1 1 14.788049 9.600673 4.841977
646 1 1 15.114049 9.679815 4.663483
647 1 1 15.370756 9.412395 4.579890
648 1 1 15.573758 9.169574 4.790195
649 1 1 15.649015 9.054532 5.144458
650 1 1 15.838066 8.851699 5.404300
651 1 1 16.085712 8.683897 5.638638
652 1 1 16.022543 8.722085 6.011400
653 1 1 16.286363 8.866362 6.243743
654 1 1 16.597861 8.933562 6.450753
655 1 1 16.545004 9.161467 6.750195
656 1 1 16.617353 9.403139 7.034378
657 1 1 16.333641 9.390998 7.286886
658 1 1 16.386792 9.407327 7.662796
659 1 1 16.055528 9.356004 7.841766
660 1 1 16.083543 9.073618 8.094498
661 1 1 16.093228 8.773514 8.327401
662 1 1 16.400484 8.642237 8.508398
663 1 1 16.390598 8.283093 8.632164
664 1 1 16.489109 7.971603 8.438078
665 1 1 16.189284 7.748014 8.370904
666 1 1 15.934829 7.469897 8.418899
667 1 1 15.733722 7.431099 8.738979
668 1 1 15.738242 7.525774 9.106968
669 1 1 15.678968 7.348682 9.437914
670 1 1 15.978318 7.136787 9.537362
671 1 1 15.965106 6.759788 9.583159
672 1 1 16.086526 6.449510 9.765873
673 1 1 16.299632 6.179839 9.927933
674 1 1 16.490261 6.000356 10.203336
675 1 1 16.540087 5.889791 10.563464
676 1 1 16.375497 5.554268 10.632275
677 1 1 16.038919 5.469413 10.786919
678 1 1 16.005969 5.333027 11.140067
679 1 1 16.086995 4.962568 11.164466
680 1 1 15.974144 4.620661 11.042958
681 1 1 15.681961 4.692028 10.810717
682 1 1 15.751183 4.569301 10.457806
683 1 1 15.509492 4.753886 10.229959
684 1 1 15.312832 4.735458 9.905328
685 1 1 15.082793 4.530387 9.683004
686 1 1 14.932871 4.311344 9.411078
687 1 1 14.625521 4.124414 9.533522
688 1 1 14.535819 4.145996 9.902152
689 1 1 14.201751 4.215520 10.069378
690 1 1 14.015291 3.966231 10.287295
691 1 1 13.887335 4.062779 10.631832
692 1 1 13.815852 4.379133 10.829847
693 1 1 13.541232 4.470061 11.076253
694 1 1 13.200898 4.443066 11.243118
695 1 1 12.832220 4.439518 11.151117
696 1 1 12.483971 4.477245 11.298423
697 1 1 12.124768 4.431573 11.413693
698 1 1 11.901082 4.735674 11.370250
699 1 1 11.794519 4.994079 11.112819
700 1 1 12.054688 5.255584 11.021566
701 1 1 12.294756 5.379237 10.754212
702 1 1 12.453298 5.091162 10.563747
703 1 1 12.185544 4.924582 10.351713
704 1 1 11.846900 5.075489 10.435066
705 1 1 11.633610 5.344075 10.598678
706 1 1 11.403381 5.508530 10.852349
707 1 1 11.054559 5.646307 10.791192
708 1 1 10.806273 5.692499 11.075130
709 1 1 10.545154 5.953870 11.164025
710 1 1 10.355338 6.264617 11.055370
711 1 1 10.319219 6.518067 10.774553
712 1 1 9.962130 6.638176 10.724943
713 1 1 9.693839 6.668772 10.457579
714 1 1 9.681362 6.975497 10.233605
715 1 1 9.740085 7.349209 10.269531
716 1 1 9.538021 7.589358 10.055291
717 1 1 9.208979 7.779378 10.050414
718 1 1 9.099390 7.841963 9.691982
719 1 1 9.144437 8.020048 9.359332
720 1 1 9.228924 7.869700 9.020721
721 1 1 9.157426 7.687220 8.695161
722 1 1 8.919430 7.905549 8.494935
723 1 1 8.573628 8.058020 8.534605
724 1 1 8.220215 7.918436 8.538536
725 1 1 8.022236 7.594959 8.514728
726 1 1 7.663012 7.679585 8.605262
727 1 1 7.288864 7.667774 8.670634
728 1 1 7.224568 7.389616 8.921421
729 1 1 7.477741 7.295966 9.188878
730 1 1 7.555669 7.162790 9.536141
731 1 1 7.571668 7.216288 9.912016
732 1 1 7.512772 7.385776 10.246986
733 1 1 7.682033 7.719777 10.311751
734 1 1 7.523837 8.054075 10.224467
735 1 1 7.155812 8.097631 10.140441
736 1 1 6.795960 8.219320 10.130529
737 1 1 6.449050 8.356271 10.203316
738 1 1 6.076135 8.289235 10.174318
739 1 1 5.717920 8.288843 10.047504
740 1 1 5.379438 8.461253 10.057716
741 1 1 5.043569 8.500559 10.231057
742 1 1 4.963458 8.232329 10.488030
743 1 1 5.156168 8.196284 10.813551
744 1 1 5.510987 8.071767 10.868316
745 1 1 5.529525 7.809399 11.142577
746 1 1 5.588747 7.669226 11.490779
747 1 1 5.546101 7.416097 11.770970
748 1 1 5.328696 7.530175 12.061007
749 1 1 5.083158 7.449195 12.339491
750 1 1 4.999721 7.373629 12.702435
751 1 1 4.644986 7.442712 12.819869
752 1 1 4.558207 7.787972 12.686959
753 1 1 4.776126 8.091124 12.757741
754 1 1 5.051347 8.334103 12.855798
755 1 1 5.097946 8.698724 12.759468
756 1 1 5.144094 9.043702 12.911983
757 1 1 5.487546 9.205483 12.928354
758 1 1 5.759289 9.097114 12.685843
759 1 1 6.055070 9.334083 12.713397
760 1 1 6.328714 9.594654 12.673129
761 1 1 6.419653 9.930188 12.826579
762 1 1 6.568259 10.148172 13.100074
763 1 1 6.946835 10.178231 13.113373
764 1 1 7.200999 9.897331 13.143305
765 1 1 7.432954 9.704333 13.374279
766 1 1 7.733268 9.723662 13.606308
767 1 1 7.910162 9.408338 13.723267
768 1 1 7.821450 9.042695 13.670017
769 1 1 7.471618 9.033424 13.521924
770 1 1 7.320446 8.871281 13.213287
771 1 1 7.511179 8.976140 12.901798
772 1 1 7.845177 9.032653 12.729603
773 1 1 8.199146 9.127019 12.830604
774 1 1 8.414131 8.879683 13.022974
775 1 1 8.580390 8.672072 13.294370
776 1 1 8.947540 8.724707 13.377020
777 1 1 9.314554 8.803993 13.318588
778 1 1 9.693098 8.817413 13.348991
779 1 1 9.847864 8.577782 13.600037
780 1 1 9.552952 8.380984 13.736775
781 1 1 9.269415 8.175389 13.589338
782 1 1 9.085066 7.866373 13.467173
783 1 1 8.839020 7.671236 13.253203
784 1 1 8.809171 7.614015 12.878724
785 1 1 8.814865 7.467905 12.527982
786 1 1 8.517061 7.285696 12.377940
787 1 1 8.284792 7.473065 12.142686
788 1 1 7.961467 7.660215 12.212221
789 1 1 7.583052 7.657109 12.246761
790 1 1 7.324893 7.880107 12.079353
791 1 1 7.223482 8.002326 11.734131
792 1 1 7.098587 8.358845 11.775308
793 1 1 6.946721 8.626130 11.998680
794 1 1 6.572113 8.565868 12.019596
795 1 1 6.209892 8.499721 12.113514
796 1 1 5.952046 8.321157 12.328061
797 1 1 5.669644 8.176216 12.536965
798 1 1 5.335300 8.075242 12.387236
799 1 1 5.150040 8.124601 12.059147
800 1 1 5.092175 8.020242 11.698369
801 1 1 5.039848 8.338889 11.498054
802 1 1 5.181276 8.686771 11.439952
803 1 1 5.154947 9.000546 11.652677
804 1 1 5.466056 9.217155 11.626371
805 1 1 5.739213 9.438760 11.770164
806 1 1 5.836588 9.794520 11.678770
807 1 1 5.846159 9.922958 11.321262
808 1 1 5.766803 10.000599 10.957842
809 1 1 5.423054 10.162500 10.952887
810 1 1 5.322438 10.419546 10.691727
811 1 1 5.603746 10.674988 10.687868
812 1 1 5.444251 11.019509 10.671551
813 1 1 5.088299 11.092401 10.560265
814 1 1 5.093340 11.167442 10.187782
815 1 1 4.914841 11.243104 9.860959
816 1 1 4.669198 11.056011 9.639474