LAMMPS data file for polymer system

27000 atoms
26940 bonds

1 atom types
1 bond types

0.0 35.1858945654143 xlo xhi
0.0 35.1858945654143 ylo yhi
0.0 35.1858945654143 zlo zhi

Masses

1 5.65487

Atoms

1 1 1 21.424292 35.047134 30.278542
2 1 1 21.397806 0.163566 30.507227
3 1 1 21.065717 0.007341 30.408683
4 1 1 20.770073 0.154552 30.596629
5 1 1 20.910033 0.458392 30.776886
6 1 1 20.958217 0.803777 30.625931
7 1 1 20.925481 1.169900 30.529587
8 1 1 21.169086 1.377121 30.734809
9 1 1 21.423494 1.563715 30.523009
10 1 1 21.611060 1.745606 30.247084
11 1 1 21.791084 1.482770 30.039941
12 1 1 22.034387 1.435653 29.751871
13 1 1 21.915420 1.427948 29.391056
14 1 1 21.640426 1.686886 29.349469
15 1 1 21.263300 1.710476 29.309218
16 1 1 21.102857 1.512150 29.027572
17 1 1 20.782436 1.387567 28.865679
18 1 1 20.522807 1.202954 29.072829
19 1 1 20.263459 0.932011 29.133892
20 1 1 20.284124 0.579885 29.275244
21 1 1 20.246137 0.214971 29.176278
22 1 1 20.540113 0.087431 28.972043
23 1 1 20.614668 34.946279 29.150598
24 1 1 20.260911 35.084774 29.141947
25 1 1 19.930549 35.109800 28.955843
26 1 1 19.856176 0.096252 28.625441
27 1 1 20.118501 0.243065 28.392993
28 1 1 20.111947 0.608385 28.288598
29 1 1 20.078454 0.974656 28.384116
30 1 1 19.937519 1.324418 28.337171
31 1 1 20.209097 1.559982 28.460278
32 1 1 20.543767 1.711061 28.362447
33 1 1 20.889644 1.837802 28.455751
34 1 1 21.264102 1.779258 28.428289
35 1 1 21.467738 2.081239 28.536640
36 1 1 21.485039 2.392331 28.754177
37 1 1 21.325222 2.695994 28.917418
38 1 1 20.982148 2.803685 28.794522
39 1 1 20.642992 2.672987 28.683657
40 1 1 20.387881 2.573807 28.947251
41 1 1 20.265780 2.557883 29.306748
42 1 1 20.100696 2.859714 29.468135
43 1 1 20.228989 3.203251 29.368521
44 1 1 20.505820 3.436415 29.252764
45 1 1 20.464248 3.745470 29.035608
46 1 1 20.160931 3.769900 28.808007
47 1 1 19.808752 3.714738 28.939639
48 1 1 19.450949 3.587283 28.951118
49 1 1 19.248883 3.862040 29.118683
50 1 1 19.147827 3.936870 29.477275
51 1 1 19.042309 3.853032 29.832573
52 1 1 18.776301 3.811267 30.100706
53 1 1 18.430932 3.666971 30.166276
54 1 1 18.106229 3.507593 30.049801
55 1 1 18.140122 3.444869 29.676550
56 1 1 18.236517 3.657649 29.376829
57 1 1 18.431351 3.811965 29.089381
58 1 1 18.285454 4.093171 28.879529
59 1 1 17.928748 4.223085 28.862715
60 1 1 17.670661 4.424827 29.055305
61 1 1 17.583533 4.748341 29.234603
62 1 1 17.703752 5.105106 29.286241
63 1 1 17.874011 5.442026 29.242684
64 1 1 18.195569 5.643476 29.263139
65 1 1 18.120298 5.968765 29.081697
66 1 1 18.224409 6.332482 29.117346
67 1 1 18.032770 6.456716 29.421057
68 1 1 17.982588 6.767969 29.633196
69 1 1 18.007906 6.733901 30.010818
70 1 1 18.283468 6.524186 30.167297
71 1 1 18.265575 6.171346 30.027356
72 1 1 18.355920 5.823960 29.902613
73 1 1 18.633278 5.575052 29.976893
74 1 1 18.730292 5.243393 29.818808
75 1 1 18.554671 4.922339 29.716427
76 1 1 18.618259 4.681816 30.003664
77 1 1 18.963192 4.649403 30.159774
78 1 1 19.180945 4.393648 30.337462
79 1 1 19.489283 4.286902 30.142699
80 1 1 19.815041 4.429919 30.009177
81 1 1 19.972187 4.212087 29.740375
82 1 1 19.815823 3.892685 29.606461
83 1 1 19.660046 3.712606 29.902612
84 1 1 19.718692 3.473161 30.191794
85 1 1 19.470972 3.547515 30.470194
86 1 1 19.382468 3.209846 30.620350
87 1 1 19.697884 3.092951 30.797121
88 1 1 20.062724 3.131541 30.896127
89 1 1 20.378686 3.330626 30.966365
90 1 1 20.594028 3.325581 31.279419
91 1 1 20.681331 3.446967 31.628766
92 1 1 20.744574 3.596417 31.972372
93 1 1 20.832074 3.326490 32.225124
94 1 1 21.029843 3.475088 32.513579
95 1 1 21.198745 3.605450 32.828028
96 1 1 20.959832 3.671407 33.116073
97 1 1 21.159129 3.786217 33.418562
98 1 1 21.092236 4.095576 33.628853
99 1 1 21.251386 4.416240 33.756313
100 1 1 21.065642 4.736959 33.840209
101 1 1 20.801774 4.938711 33.655628
102 1 1 20.648338 5.285252 33.627943
103 1 1 20.576709 5.651522 33.556419
104 1 1 20.247075 5.840462 33.549910
105 1 1 19.947801 6.070888 33.591616
106 1 1 19.732956 6.002265 33.897447
107 1 1 19.395520 6.056735 34.063491
108 1 1 19.102647 6.117242 33.829047
109 1 1 19.146432 6.367274 33.546263
110 1 1 19.129787 6.609700 33.254111
111 1 1 19.194042 6.769651 32.915457
112 1 1 19.526502 6.644807 32.780237
113 1 1 19.559043 6.288769 32.651479
114 1 1 19.777568 6.077439 32.423475
115 1 1 19.859878 6.219236 32.080664
116 1 1 19.582061 6.211705 31.821509
117 1 1 19.561250 6.546227 31.642450
118 1 1 19.204996 6.655823 31.568480
119 1 1 18.902950 6.879781 31.623358
120 1 1 18.607135 6.720429 31.800842
121 1 1 18.590904 6.378450 31.965727
122 1 1 18.668414 6.008977 31.922343
123 1 1 18.663739 5.629006 31.922245
124 1 1 18.782787 5.268302 31.911290
125 1 1 18.873475 5.168086 32.266441
126 1 1 18.978306 4.853934 32.452772
127 1 1 18.873746 4.533990 32.276412
128 1 1 19.097733 4.330235 32.046817
129 1 1 18.979993 4.101274 31.767329
130 1 1 18.909085 4.183551 31.403183
131 1 1 18.921841 3.951485 31.102546
132 1 1 18.955295 3.586266 31.202021
133 1 1 18.861541 3.330937 31.467384
134 1 1 18.756034 3.373733 31.829926
135 1 1 18.869697 3.437676 32.186847
136 1 1 19.229708 3.462129 32.305985
137 1 1 19.515296 3.681670 32.426990
138 1 1 19.824878 3.774509 32.227140
139 1 1 20.134330 3.790816 32.007200
140 1 1 20.322766 4.074815 31.839165
141 1 1 20.509845 4.404837 31.817088
142 1 1 20.792324 4.546461 31.606024
143 1 1 20.823155 4.605752 31.231946
144 1 1 21.106128 4.753861 31.026057
145 1 1 21.240662 5.061438 31.204093
146 1 1 21.507271 5.264332 31.024779
147 1 1 21.725356 5.551228 30.904241
148 1 1 21.647771 5.792875 30.621421
149 1 1 21.362806 6.012881 30.499795
150 1 1 21.318657 6.280332 30.233485
151 1 1 21.308549 6.644663 30.125966
152 1 1 21.511197 6.964310 30.091910
153 1 1 21.471912 7.262203 30.324540
154 1 1 21.223120 7.538697 30.246735
155 1 1 21.187831 7.762653 30.551692
156 1 1 21.030261 7.801594 30.895283
157 1 1 20.753755 7.813672 31.155665
158 1 1 20.813785 7.574436 31.444736
159 1 1 20.919667 7.787399 31.741107
160 1 1 20.723836 8.112108 31.765894
161 1 1 20.400018 8.310081 31.747217
162 1 1 20.026329 8.356671 31.798064
163 1 1 19.740530 8.110160 31.753889
164 1 1 19.899488 7.781261 31.649210
165 1 1 19.691815 7.578957 31.403556
166 1 1 19.362823 7.752347 31.325451
167 1 1 19.320565 7.743165 30.947920
168 1 1 18.998919 7.679804 30.755750
169 1 1 18.668268 7.729480 30.936309
170 1 1 18.342496 7.566769 31.044928
171 1 1 18.092599 7.662999 31.314541
172 1 1 17.722022 7.578993 31.318497
173 1 1 17.496334 7.394247 31.562084
174 1 1 17.434933 7.141650 31.839256
175 1 1 17.170981 7.155844 32.112254
176 1 1 16.798645 7.113103 32.175011
177 1 1 16.472105 7.218060 32.011438
178 1 1 16.346837 7.521504 31.820050
179 1 1 16.574761 7.695976 31.571032
180 1 1 16.938606 7.805339 31.563502
181 1 1 17.094276 7.852044 31.220011
182 1 1 16.862337 7.719462 30.949778
183 1 1 16.552127 7.603755 30.763278
184 1 1 16.266942 7.399999 30.910085
185 1 1 16.127008 7.089668 31.078944
186 1 1 16.365100 6.793506 31.079637
187 1 1 16.638553 6.588581 31.245858
188 1 1 16.984398 6.479447 31.359351
189 1 1 17.211215 6.451713 31.662971
190 1 1 17.578464 6.432601 31.758693
191 1 1 17.893873 6.639082 31.806474
192 1 1 18.041987 6.953811 31.653478
193 1 1 18.313069 7.078533 31.418193
194 1 1 18.275524 6.877129 31.098151
195 1 1 18.619870 6.741275 31.012309
196 1 1 18.787995 6.400497 31.014492
197 1 1 18.648217 6.097435 30.832790
198 1 1 18.701262 6.023175 30.463911
199 1 1 19.008552 5.962386 30.248789
200 1 1 19.353368 5.893405 30.392814
201 1 1 19.384438 5.793395 30.758099
202 1 1 19.709600 5.644491 30.886540
203 1 1 19.883456 5.648934 31.224407
204 1 1 20.118568 5.376557 31.346609
205 1 1 20.050682 5.250006 31.698428
206 1 1 20.004594 5.411040 32.039520
207 1 1 20.224603 5.606941 32.279559
208 1 1 20.461080 5.855462 32.443010
209 1 1 20.667631 5.754131 32.745448
210 1 1 20.884465 5.848903 33.042772
211 1 1 21.102140 6.010826 33.308852
212 1 1 21.322740 6.206403 33.548613
213 1 1 21.218519 6.500557 33.765434
214 1 1 20.899570 6.482815 33.971242
215 1 1 21.016618 6.384177 34.319049
216 1 1 21.220024 6.191666 34.575887
217 1 1 21.408849 6.072161 34.883236
218 1 1 21.484461 6.185959 0.051930
219 1 1 21.122401 6.252319 0.146316
220 1 1 20.844515 6.037359 0.291132
221 1 1 20.551162 6.094016 0.525939
222 1 1 20.292834 6.322250 0.366015
223 1 1 20.031487 6.521368 0.556934
224 1 1 19.781771 6.283752 0.716872
225 1 1 19.628609 5.969073 0.568822
226 1 1 19.256908 5.942296 0.643126
227 1 1 18.938588 5.922260 0.849696
228 1 1 18.854725 5.584796 1.002943
229 1 1 18.663450 5.266209 1.082416
230 1 1 18.299656 5.257421 1.191855
231 1 1 18.069338 4.956408 1.219148
232 1 1 17.724129 4.802153 1.257043
233 1 1 17.440987 4.781440 1.509633
234 1 1 17.423222 4.920723 1.862740
235 1 1 17.358072 5.244690 2.050359
236 1 1 17.016920 5.240882 2.217691
237 1 1 16.674736 5.082352 2.264367
238 1 1 16.377515 4.999195 2.042681
239 1 1 16.030322 5.111259 1.936387
240 1 1 15.671116 5.149342 2.054375
241 1 1 15.343065 5.306273 1.944126
242 1 1 15.231328 5.549090 2.214227
243 1 1 15.192946 5.739874 2.540614
244 1 1 14.913817 5.985964 2.617600
245 1 1 14.562626 6.038727 2.482392
246 1 1 14.285212 6.298422 2.481854
247 1 1 14.012830 6.191539 2.724308
248 1 1 13.739760 5.933367 2.780702
249 1 1 13.390497 5.804893 2.703831
250 1 1 13.119362 5.643531 2.492057
251 1 1 13.115311 5.765534 2.132197
252 1 1 13.169047 5.917892 1.788250
253 1 1 13.469084 5.816106 1.578448
254 1 1 13.630015 5.679144 1.262627
255 1 1 13.568345 5.305344 1.233126
256 1 1 13.361214 5.147823 1.510044
257 1 1 13.243215 4.892726 1.765782
258 1 1 13.238126 4.799678 2.134179
259 1 1 12.994746 4.650872 2.385223
260 1 1 13.174858 4.431262 2.637673
261 1 1 13.289271 4.111958 2.466341
262 1 1 13.356255 4.097564 2.092569
263 1 1 13.535723 4.232591 1.786042
264 1 1 13.319180 4.355648 1.499048
265 1 1 13.153931 4.471661 1.177126
266 1 1 13.307574 4.455672 0.829939
267 1 1 13.382717 4.759927 0.615039
268 1 1 13.678670 4.749162 0.376930
269 1 1 13.824294 4.822856 0.033764
270 1 1 13.869950 5.158639 35.047713
271 1 1 13.539904 5.309442 35.160531
272 1 1 13.263803 5.570530 35.159180
273 1 1 13.118799 5.499135 0.317199
274 1 1 13.427160 5.693845 0.423976
275 1 1 13.694891 5.707898 0.154676
276 1 1 14.015643 5.528628 0.057824
277 1 1 14.231683 5.828127 35.154123
278 1 1 14.178671 5.941811 34.795423
279 1 1 13.945773 6.219264 34.680629
280 1 1 13.649851 6.384044 34.508356
281 1 1 13.366912 6.131377 34.485889
282 1 1 13.102953 5.858206 34.475727
283 1 1 13.048053 5.482622 34.457767
284 1 1 12.769429 5.241988 34.551916
285 1 1 12.862086 4.873482 34.547630
286 1 1 12.723868 4.605825 34.779267
287 1 1 12.854188 4.249110 34.766201
288 1 1 13.044036 4.190072 35.090041
289 1 1 13.356786 4.143365 0.114874
290 1 1 13.661799 3.926521 0.048954
291 1 1 13.712508 3.550509 0.070014
292 1 1 13.385714 3.358425 0.043372
293 1 1 13.202855 3.341452 34.896589
294 1 1 13.147338 3.070458 35.157128
295 1 1 13.108747 2.717701 35.021211
296 1 1 12.856538 2.902704 0.051104
297 1 1 13.134110 2.703631 0.217608
298 1 1 13.374398 2.437113 0.342626
299 1 1 13.736420 2.448661 0.227705
300 1 1 13.961342 2.151519 0.153430
301 1 1 13.860441 2.310263 35.009144
302 1 1 14.010001 1.962546 35.042682
303 1 1 14.101113 1.800832 34.711099
304 1 1 14.459792 1.675504 34.704619
305 1 1 14.757708 1.443231 34.745796
306 1 1 15.134896 1.401530 34.726045
307 1 1 15.196733 1.115823 34.483253
308 1 1 14.964147 0.831441 34.580362
309 1 1 15.029171 0.774970 34.950474
310 1 1 14.847959 0.732565 0.095886
311 1 1 14.622467 1.038148 0.082758
312 1 1 14.350062 1.245088 0.248201
313 1 1 14.083487 1.137234 0.496607
314 1 1 14.113820 0.809906 0.687227
315 1 1 14.156966 0.853566 1.062236
316 1 1 14.130277 0.588317 1.333033
317 1 1 13.849796 0.344511 1.253732
318 1 1 13.697302 0.425470 0.915219
319 1 1 13.537197 0.174432 0.679112
320 1 1 13.461396 34.988011 0.673186
321 1 1 13.554914 34.638594 0.789644
322 1 1 13.495169 34.268828 0.853702
323 1 1 13.337618 34.016250 1.089884
324 1 1 13.005446 33.832499 1.107134
325 1 1 12.983304 33.476764 1.238899
326 1 1 12.975376 33.097183 1.254872
327 1 1 13.033141 32.725230 1.202768
328 1 1 13.013578 32.369555 1.070435
329 1 1 13.091520 32.077901 0.839647
330 1 1 13.204828 32.092102 0.477212
331 1 1 13.207584 32.365359 0.213160
332 1 1 13.101303 32.195291 35.076283
333 1 1 13.453000 32.249907 34.943143
334 1 1 13.761088 32.448319 34.842571
335 1 1 14.098559 32.581179 34.729164
336 1 1 14.274223 32.915610 34.687956
337 1 1 14.346748 33.244469 34.864001
338 1 1 14.128208 33.553371 34.898922
339 1 1 13.817885 33.728140 34.766426
340 1 1 13.624582 33.928656 34.507916
341 1 1 13.467065 34.206027 34.301389
342 1 1 13.163036 34.395681 34.174906
343 1 1 12.830957 34.322917 34.344696
344 1 1 12.542057 34.386438 34.106155
345 1 1 12.519315 34.170547 33.794268
346 1 1 12.783779 33.925575 33.674067
347 1 1 12.728238 33.604783 33.870046
348 1 1 12.942691 33.485502 34.160187
349 1 1 13.054151 33.649537 34.484331
350 1 1 13.034078 33.530064 34.844502
351 1 1 12.742835 33.337074 34.993942
352 1 1 12.371337 33.304340 35.066864
353 1 1 12.357588 33.607805 0.109268
354 1 1 12.317759 33.488200 0.467749
355 1 1 12.648074 33.356580 0.601794
356 1 1 13.005465 33.227610 0.607963
357 1 1 12.977737 32.854215 0.543099
358 1 1 12.680492 32.747027 0.332016
359 1 1 12.606470 32.999818 0.058123
360 1 1 12.455015 32.661233 35.161424
361 1 1 12.099525 32.660455 0.109789
362 1 1 12.115567 32.288740 0.032520
363 1 1 12.206361 32.028036 34.957282
364 1 1 11.898910 31.862447 34.807435
365 1 1 11.800182 31.894989 34.441930
366 1 1 11.636162 31.929112 34.100853
367 1 1 11.439867 31.746579 33.831502
368 1 1 11.230920 31.733611 33.514369
369 1 1 11.150139 31.985278 33.241352
370 1 1 11.216006 31.838922 32.896908
371 1 1 11.295860 31.495238 32.755824
372 1 1 11.360404 31.161968 32.926603
373 1 1 11.359651 30.838176 33.125495
374 1 1 11.454057 30.558515 33.364822
375 1 1 11.676035 30.419694 33.640238
376 1 1 12.012510 30.500332 33.797344
377 1 1 12.203233 30.828498 33.779125
378 1 1 12.356788 31.073919 33.532976
379 1 1 12.624875 31.271501 33.349972
380 1 1 12.512152 31.625775 33.271338
381 1 1 12.462841 31.821364 33.593384
382 1 1 12.272906 31.658081 33.879151
383 1 1 12.483035 31.698973 34.193115
384 1 1 12.583971 31.468414 34.477816
385 1 1 12.521751 31.094742 34.507780
386 1 1 12.601186 30.863245 34.798467
387 1 1 12.788569 30.792088 35.121305
388 1 1 12.496411 30.811630 0.177613
389 1 1 12.450088 31.156422 0.330495
390 1 1 12.572130 31.297347 0.661623
391 1 1 12.616763 31.333126 1.037293
392 1 1 12.688856 30.998655 1.202616
393 1 1 13.019374 30.838397 1.299955
394 1 1 13.059525 30.486446 1.162412
395 1 1 12.940788 30.212990 1.398046
396 1 1 12.667238 30.188887 1.660704
397 1 1 12.293277 30.200231 1.594187
398 1 1 12.121273 30.535371 1.544222
399 1 1 11.794139 30.708540 1.458224
400 1 1 11.817613 31.063594 1.324862
401 1 1 11.857818 31.326569 1.596206
402 1 1 11.894404 31.692445 1.500308
403 1 1 12.220975 31.865184 1.411356
404 1 1 12.570401 31.996842 1.481837
405 1 1 12.759413 31.754310 1.705114
406 1 1 12.597398 31.575395 1.998611
407 1 1 12.589827 31.359458 2.311203
408 1 1 12.440805 31.039399 2.451755
409 1 1 12.540245 30.681623 2.371083
410 1 1 12.884778 30.606459 2.229494
411 1 1 13.230787 30.587847 2.073510
412 1 1 13.572931 30.614818 2.236637
413 1 1 13.816504 30.384079 2.415052
414 1 1 13.741112 30.077460 2.626477
415 1 1 13.439816 29.896147 2.482442
416 1 1 13.264017 29.669630 2.233073
417 1 1 13.416409 29.674576 1.885003
418 1 1 13.596888 29.677990 1.550615
419 1 1 13.864521 29.680832 1.280866
420 1 1 13.846212 29.719668 0.903299
421 1 1 13.727202 29.785570 0.548484
422 1 1 13.675752 29.980801 0.226556
423 1 1 13.544010 29.948738 35.057463
424 1 1 13.357109 30.233945 34.889758
425 1 1 13.456350 30.520438 34.660688
426 1 1 13.223743 30.814589 34.599292
427 1 1 13.282782 30.939581 34.245327
428 1 1 13.179228 31.110149 33.921934
429 1 1 13.157554 31.483132 33.991314
430 1 1 13.220522 31.834193 33.860199
431 1 1 13.029967 32.153003 33.779889
432 1 1 12.771133 32.427460 33.734304
433 1 1 12.404857 32.522294 33.769637
434 1 1 12.315110 32.812746 33.541640
435 1 1 12.157527 33.145755 33.448511
436 1 1 12.072286 33.328065 33.126180
437 1 1 12.041232 33.077278 32.842382
438 1 1 11.968227 32.729772 32.707068
439 1 1 11.731086 32.465468 32.842373
440 1 1 11.787779 32.095029 32.905311
441 1 1 12.016905 31.792129 32.892960
442 1 1 12.051809 31.648729 32.542791
443 1 1 12.155875 31.854431 32.240703
444 1 1 12.276034 31.958906 31.895671
445 1 1 12.565589 31.971640 31.649916
446 1 1 12.433657 31.992104 31.294142
447 1 1 12.308434 31.656777 31.166569
448 1 1 12.002974 31.555459 30.964508
449 1 1 11.790905 31.276943 31.112343
450 1 1 11.528189 31.160728 31.361089
451 1 1 5.149181 11.504364 34.421330
452 1 1 5.457192 11.318551 34.543814
453 1 1 5.741519 11.288571 34.293495
454 1 1 5.817705 11.121289 33.960910
455 1 1 5.764514 10.913592 33.647171
456 1 1 6.005471 10.689528 33.457079
457 1 1 6.102214 10.404341 33.225326
458 1 1 6.276748 10.561754 32.926731
459 1 1 6.551868 10.783809 33.066018
460 1 1 6.539523 11.159305 33.009011
461 1 1 6.255455 11.402996 33.074742
462 1 1 6.072641 11.736025 33.083127
463 1 1 5.885232 12.022596 33.247914
464 1 1 5.761916 12.307881 33.466559
465 1 1 5.718371 12.684922 33.447997
466 1 1 5.549787 12.981017 33.279751
467 1 1 5.218572 13.036267 33.101862
468 1 1 4.961875 13.089196 32.826717
469 1 1 4.790071 12.841308 32.595557
470 1 1 4.476617 12.647170 32.503594
471 1 1 4.305606 12.308248 32.520547
472 1 1 4.387353 12.031658 32.273130
473 1 1 4.134757 11.823268 32.080337
474 1 1 3.786425 11.931859 31.974165
475 1 1 3.525309 12.196157 32.053945
476 1 1 3.516160 12.457354 32.329793
477 1 1 3.413509 12.711234 32.593247
478 1 1 3.624045 13.018214 32.516840
479 1 1 3.786156 13.361008 32.492104
480 1 1 3.743023 13.682767 32.689616
481 1 1 3.408327 13.730172 32.863199
482 1 1 3.074491 13.630142 33.014684
483 1 1 2.755731 13.437195 33.089270
484 1 1 2.783833 13.108579 32.900532
485 1 1 2.668852 12.792069 32.724461
486 1 1 2.288937 12.784034 32.724697
487 1 1 2.019487 12.989195 32.552345
488 1 1 1.780171 12.838705 32.298414
489 1 1 1.527474 12.818210 32.015352
490 1 1 1.310411 12.987243 31.753223
491 1 1 1.437266 13.246951 31.506526
492 1 1 1.438679 13.594330 31.352493
493 1 1 1.394423 13.900722 31.132118
494 1 1 1.324626 14.191247 30.897334
495 1 1 1.058657 14.065504 30.656816
496 1 1 1.068009 13.706648 30.532176
497 1 1 0.811421 13.426529 30.522388
498 1 1 0.732468 13.061086 30.454431
499 1 1 0.429230 13.047766 30.225806
500 1 1 0.192446 13.315884 30.097564
501 1 1 35.130478 13.589999 30.186022
502 1 1 34.795447 13.488350 30.333745
503 1 1 34.502917 13.252341 30.389654
504 1 1 34.326311 13.166281 30.714929
505 1 1 34.021657 13.264190 30.919868
506 1 1 33.658351 13.153045 30.912403
507 1 1 33.460717 13.477551 30.906343
508 1 1 33.656571 13.802124 30.932671
509 1 1 33.644173 14.021184 31.242928
510 1 1 33.449186 14.344989 31.203803
511 1 1 33.173956 14.574166 31.330792
512 1 1 32.944072 14.869298 31.397505
513 1 1 32.629694 14.881054 31.184366
514 1 1 32.695051 15.085940 30.871077
515 1 1 32.895116 15.404870 30.819523
516 1 1 33.070531 15.558352 31.119644
517 1 1 33.121530 15.790553 31.416093
518 1 1 33.298728 15.695268 31.738461
519 1 1 33.370679 15.839430 32.082613
520 1 1 33.192418 15.745995 32.404937
521 1 1 33.421642 15.868528 32.682140
522 1 1 33.730134 15.665953 32.772673
523 1 1 33.763722 15.385723 33.027119
524 1 1 33.891904 15.264583 33.363711
525 1 1 33.901981 15.146364 33.724714
526 1 1 33.890269 15.075350 34.097836
527 1 1 33.679800 15.298748 34.321881
528 1 1 33.495951 15.621515 34.241747
529 1 1 33.278560 15.819667 34.482322
530 1 1 32.976259 15.978599 34.648921
531 1 1 32.618618 15.890577 34.742435
532 1 1 32.554954 15.515998 34.736332
533 1 1 32.843873 15.344727 34.914073
534 1 1 33.157294 15.228841 34.733138
535 1 1 33.418015 14.958123 34.789136
536 1 1 33.764233 14.805369 34.823770
537 1 1 33.946925 14.477537 34.764192
538 1 1 33.995608 14.341277 34.412818
539 1 1 34.231675 14.048638 34.357729
540 1 1 34.221885 13.909630 34.004203
541 1 1 34.053372 13.569163 34.013474
542 1 1 33.724474 13.395354 33.935908
543 1 1 33.413060 13.575571 33.813668
544 1 1 33.180136 13.652543 34.103878
545 1 1 32.807409 13.646715 34.030119
546 1 1 32.573339 13.942166 33.981952
547 1 1 32.394636 14.123047 33.699556
548 1 1 32.500928 14.086098 33.336600
549 1 1 32.176536 14.039670 33.144209
550 1 1 31.826032 14.136128 33.033563
551 1 1 31.700328 14.459978 33.187575
552 1 1 31.855183 14.793480 33.283474
553 1 1 32.064295 15.053005 33.100940
554 1 1 32.416054 14.912784 33.069259
555 1 1 32.728647 14.715327 33.156986
556 1 1 32.839568 14.640252 33.512599
557 1 1 33.038582 14.916374 33.681567
558 1 1 32.791392 15.091818 33.910732
559 1 1 32.631995 15.435132 33.877157
560 1 1 32.582197 15.492127 33.504770
561 1 1 32.241416 15.642737 33.430036
562 1 1 31.997245 15.471339 33.665416
563 1 1 32.057290 15.505246 34.039107
564 1 1 32.009653 15.861919 34.161234
565 1 1 32.024842 16.221736 34.282480
566 1 1 32.172126 16.561336 34.368383
567 1 1 32.497993 16.701335 34.504804
568 1 1 32.661103 17.041913 34.462359
569 1 1 33.012373 17.052217 34.606940
570 1 1 33.277438 17.121737 34.343677
571 1 1 33.104112 17.349069 34.093320
572 1 1 33.040679 17.665416 33.892569
573 1 1 33.061760 17.646147 33.513644
574 1 1 32.837206 17.636792 33.207232
575 1 1 32.610374 17.331932 33.209866
576 1 1 32.695002 16.980805 33.327970
577 1 1 32.556200 16.627334 33.341826
578 1 1 32.624592 16.254357 33.317113
579 1 1 32.933473 16.091262 33.466753
580 1 1 33.121103 15.984588 33.779508
581 1 1 33.401076 16.182916 33.942852
582 1 1 33.530085 16.513105 34.079717
583 1 1 33.619357 16.801498 33.848937
584 1 1 33.693422 16.707924 33.488162
585 1 1 33.670443 17.003687 33.250683
586 1 1 33.791413 17.363756 33.261480
587 1 1 33.647736 17.676145 33.099708
588 1 1 33.845328 17.771346 32.789395
589 1 1 34.022559 18.107327 32.779114
590 1 1 34.111299 18.428819 32.596993
591 1 1 34.045302 18.789934 32.695175
592 1 1 33.999793 19.032577 32.406292
593 1 1 33.627177 19.063470 32.338446
594 1 1 33.284064 19.008738 32.184569
595 1 1 33.025733 18.938819 32.454341
596 1 1 32.828695 18.961203 32.778493
597 1 1 32.619718 19.000949 33.093372
598 1 1 32.397806 18.914021 33.389343
599 1 1 32.271572 18.657492 33.639659
600 1 1 32.175053 18.345165 33.445918
601 1 1 31.992361 18.116301 33.203751
602 1 1 31.829445 17.772995 33.204014
603 1 1 31.671792 17.629105 33.518403
604 1 1 31.752487 17.289427 33.668427
605 1 1 32.081186 17.105772 33.719686
606 1 1 32.024486 16.734083 33.774754
607 1 1 32.030642 16.389116 33.615505
608 1 1 31.821046 16.241170 33.335181
609 1 1 31.446549 16.280742 33.284327
610 1 1 31.210284 15.984298 33.310778
611 1 1 30.862288 16.136927 33.312510
612 1 1 30.865750 16.516908 33.313985
613 1 1 30.796096 16.811518 33.543667
614 1 1 30.468085 16.901160 33.713292
615 1 1 30.098295 16.893418 33.626140
616 1 1 29.989012 17.246620 33.538360
617 1 1 29.695087 17.441356 33.396636
618 1 1 29.640075 17.664082 33.093705
619 1 1 29.663714 17.460158 32.773930
620 1 1 29.467209 17.136239 32.744562
621 1 1 29.252997 16.980973 33.017336
622 1 1 28.933367 17.151917 33.131418
623 1 1 28.706259 17.445931 33.051557
624 1 1 28.510054 17.768522 33.008679
625 1 1 28.614586 17.972297 32.705448
626 1 1 28.808490 18.169955 32.445194
627 1 1 28.944616 18.389483 32.166487
628 1 1 29.050129 18.298935 31.812838
629 1 1 29.227100 18.032881 31.607176
630 1 1 29.360292 17.818311 31.323240
631 1 1 29.673427 17.879232 31.116757
632 1 1 29.657939 18.233727 30.980765
633 1 1 29.642636 18.415583 30.647457
634 1 1 29.863280 18.705104 30.538398
635 1 1 30.182146 18.728688 30.333050
636 1 1 30.144535 19.000329 30.069997
637 1 1 29.829122 19.208149 30.028466
638 1 1 29.449258 19.214830 30.020788
639 1 1 29.125883 19.412419 30.048846
640 1 1 28.780873 19.308445 30.169501
641 1 1 28.438935 19.293446 30.004414
642 1 1 28.426118 19.239835 29.628433
643 1 1 28.779291 19.152699 29.518542
644 1 1 28.869567 19.017290 29.175155
645 1 1 28.646220 18.777273 28.983040
646 1 1 28.318933 18.584546 28.994825
647 1 1 28.368408 18.231980 29.127675
648 1 1 28.608951 18.028921 28.914822
649 1 1 28.877983 17.764847 28.867003
650 1 1 28.731482 17.480710 28.661567
651 1 1 28.696982 17.433930 28.286039
652 1 1 29.035036 17.332214 28.145422
653 1 1 29.255646 17.099395 28.349203
654 1 1 29.486001 17.044363 28.646370
655 1 1 29.830625 16.912083 28.556169
656 1 1 30.095578 16.866366 28.287636
657 1 1 30.203233 16.775422 27.934734
658 1 1 30.524676 16.907850 27.781316
659 1 1 30.875005 17.054964 27.776084
660 1 1 31.193811 17.261737 27.773396
661 1 1 31.370116 17.597577 27.796378
662 1 1 31.391194 17.949501 27.938172
663 1 1 31.615810 18.192314 28.125227
664 1 1 31.828439 18.394128 28.367011
665 1 1 31.638378 18.493119 28.680823
666 1 1 31.588317 18.801180 28.897601
667 1 1 31.666889 19.172967 28.896960
668 1 1 31.685215 19.332426 28.552523
669 1 1 31.384919 19.261417 28.330758
670 1 1 31.069555 19.245332 28.542151
671 1 1 30.939409 19.566068 28.698964
672 1 1 30.779354 19.850227 28.893992
673 1 1 30.478660 20.079554 28.931304
674 1 1 30.509458 20.287661 29.247758
675 1 1 30.471741 20.583571 29.483161
676 1 1 30.151792 20.617863 29.685291
677 1 1 29.972294 20.943940 29.608776
678 1 1 29.705551 21.185796 29.487312
679 1 1 29.533642 21.445682 29.269811
680 1 1 29.283195 21.718431 29.355162
681 1 1 29.205881 22.083629 29.284076
682 1 1 28.978294 22.248364 29.539940
683 1 1 28.652641 22.443789 29.552544
684 1 1 28.388053 22.184919 29.638447
685 1 1 28.025248 22.075260 29.611113
686 1 1 27.838211 21.891110 29.885897
687 1 1 27.741644 21.671107 30.180301
688 1 1 27.684133 21.460820 30.491543
689 1 1 27.441790 21.179360 30.411232
690 1 1 27.512541 20.840004 30.566897
691 1 1 27.481923 20.735256 30.930890
692 1 1 27.557586 20.492078 31.212917
693 1 1 27.514503 20.651327 31.555238
694 1 1 27.356437 20.784452 31.874131
695 1 1 27.051726 20.625438 32.036196
696 1 1 26.688889 20.688585 32.129800
697 1 1 26.524636 20.436368 32.361764
698 1 1 26.264297 20.512465 32.627908
699 1 1 25.919457 20.353241 32.639455
700 1 1 25.643805 20.331689 32.900130
701 1 1 25.586441 20.278978 33.272059
702 1 1 25.315150 20.479715 33.446718
703 1 1 25.191763 20.536225 33.801658
704 1 1 25.297588 20.634214 34.153225
705 1 1 25.574995 20.436316 34.321398
706 1 1 25.828097 20.323534 34.581435
707 1 1 25.871017 19.962073 34.690540
708 1 1 26.049378 19.717870 34.460426
709 1 1 26.391139 19.655398 34.306490
710 1 1 26.765727 19.614790 34.257146
711 1 1 26.944312 19.304047 34.383425
712 1 1 27.233554 19.276593 34.628345
713 1 1 27.231603 19.551050 34.891155
714 1 1 27.437392 19.847012 34.770915
715 1 1 27.570010 20.041197 34.472411
716 1 1 27.678775 20.385805 34.589950
717 1 1 27.968011 20.388430 34.836397
718 1 1 27.860734 20.303999 0.005133
719 1 1 28.029304 20.514988 0.272468
720 1 1 27.917143 20.538415 0.634782
721 1 1 27.828524 20.583035 1.001600
722 1 1 27.772765 20.907186 1.191908
723 1 1 27.814733 21.210607 1.416795
724 1 1 27.690937 21.569865 1.419673
725 1 1 27.936366 21.818835 1.568597
726 1 1 28.249087 21.949727 1.740275
727 1 1 28.345683 22.274619 1.568477
728 1 1 28.191263 22.537191 1.341297
729 1 1 28.461436 22.796546 1.276941
730 1 1 28.729831 23.029797 1.410949
731 1 1 28.781457 22.932642 1.774674
732 1 1 29.046068 22.699803 1.916685
733 1 1 29.377141 22.649303 1.737130
734 1 1 29.693478 22.833065 1.634355
735 1 1 29.750933 22.958725 1.280365
736 1 1 29.659417 23.324263 1.231308
737 1 1 29.877299 23.630312 1.174200
738 1 1 30.106356 23.718168 0.884002
739 1 1 30.071533 23.851668 0.529933
740 1 1 30.050301 23.899787 0.153591
741 1 1 29.726800 23.946718 35.145721
742 1 1 29.429354 23.710696 35.130911
743 1 1 29.060307 23.620891 35.142720
744 1 1 28.771342 23.445845 0.130774
745 1 1 29.017193 23.158061 0.164494
746 1 1 29.357400 22.988826 0.160188
747 1 1 29.559411 22.668497 0.191506
748 1 1 29.887872 22.624517 0.005551
749 1 1 30.052446 22.966642 0.021871
750 1 1 30.344244 22.848055 34.995182
751 1 1 30.322354 22.479130 34.906778
752 1 1 30.266913 22.391050 34.541309
753 1 1 30.586135 22.353619 34.338586
754 1 1 30.960137 22.401552 34.385756
755 1 1 31.097088 22.755419 34.406325
756 1 1 31.016822 22.985909 34.115066
757 1 1 31.152352 22.824580 33.798831
758 1 1 31.316711 22.615649 33.527292
759 1 1 31.579439 22.688048 33.262467
760 1 1 31.644587 23.022231 33.093714
761 1 1 31.982226 23.194881 33.069380
762 1 1 32.273389 22.981657 33.188375
763 1 1 32.290540 22.854538 33.546071
764 1 1 32.120680 22.652233 33.819238
765 1 1 32.260007 22.546945 34.156732
766 1 1 32.206523 22.726121 34.487543
767 1 1 32.400601 23.021501 34.627129
768 1 1 32.485700 23.388636 34.578449
769 1 1 32.331908 23.693824 34.412291
770 1 1 32.349935 24.018177 34.215136
771 1 1 32.384903 24.323191 34.439064
772 1 1 32.665197 24.539633 34.301267
773 1 1 33.011787 24.417789 34.204159
774 1 1 33.255003 24.188150 34.384469
775 1 1 33.602464 24.061626 34.472008
776 1 1 33.964058 24.164370 34.527627
777 1 1 34.113542 24.230890 34.184655
778 1 1 34.088758 23.939800 33.941648
779 1 1 34.022815 23.591359 33.805118
780 1 1 33.790877 23.387393 33.583752
781 1 1 33.482794 23.277248 33.777022
782 1 1 33.266332 22.968087 33.732708
783 1 1 33.033850 23.038038 33.440374
784 1 1 32.800419 23.337382 33.422971
785 1 1 32.914475 23.664424 33.579287
786 1 1 33.162730 23.910138 33.429642
787 1 1 33.479622 24.056619 33.579718
788 1 1 33.577633 24.413392 33.493075
789 1 1 33.539126 24.785548 33.426613
790 1 1 33.199352 24.951857 33.462600
791 1 1 32.955562 25.239974 33.418380
792 1 1 32.800185 25.533693 33.602736
793 1 1 32.546806 25.816384 33.619613
794 1 1 32.579258 26.045002 33.921409
795 1 1 32.620957 26.413492 33.838484
796 1 1 32.807100 26.619639 34.097818
797 1 1 33.114885 26.545233 34.307896
798 1 1 33.451229 26.416703 34.186435
799 1 1 33.638706 26.150314 33.990758
800 1 1 33.963203 25.975234 34.082675