LAMMPS data file for polymer system

27000 atoms
26940 bonds

1 atom types
1 bond types

0.0 35.1858945654143 xlo xhi
0.0 35.1858945654143 ylo yhi
0.0 35.1858945654143 zlo zhi

Masses

1 5.65487

Atoms

1 1 1 8.757973 4.766572 15.168559
2 1 1 8.828369 5.116557 15.038348
3 1 1 8.775838 5.381995 14.771547
4 1 1 8.512057 5.372128 14.498193
5 1 1 8.174894 5.519167 14.593586
6 1 1 7.929811 5.238902 14.669650
7 1 1 7.710385 5.178830 14.365276
8 1 1 7.603464 4.907872 14.121248
9 1 1 7.258267 4.970290 13.975156
10 1 1 7.070678 5.297798 13.931005
11 1 1 7.067359 5.556394 13.652586
12 1 1 6.704007 5.598074 13.549446
13 1 1 6.437089 5.751760 13.326880
14 1 1 6.119718 5.941060 13.238331
15 1 1 5.739735 5.944624 13.237548
16 1 1 5.565172 6.157140 12.975319
17 1 1 5.563495 6.534702 13.018263
18 1 1 5.648710 6.715264 13.341583
19 1 1 5.817829 6.846764 13.655441
20 1 1 5.737979 7.000414 13.993695
21 1 1 5.859976 6.997788 14.353570
22 1 1 6.077714 7.046900 14.661105
23 1 1 6.155928 6.729732 14.855237
24 1 1 6.270106 6.783621 15.213649
25 1 1 6.186438 6.751424 15.582922
26 1 1 6.164151 6.451035 15.814590
27 1 1 6.442092 6.345307 16.051170
28 1 1 6.638483 6.032708 15.961099
29 1 1 6.810899 6.032106 15.622466
30 1 1 7.114091 5.809088 15.570142
31 1 1 7.033057 5.439496 15.605287
32 1 1 6.680412 5.321861 15.684050
33 1 1 6.675283 4.947962 15.616430
34 1 1 6.400187 4.800301 15.833037
35 1 1 6.025540 4.850896 15.794564
36 1 1 5.702879 5.050476 15.773180
37 1 1 5.478202 5.172508 16.054300
38 1 1 5.303939 5.133876 16.389770
39 1 1 5.544176 4.967719 16.632830
40 1 1 5.660603 5.149207 16.945731
41 1 1 5.899415 5.434219 17.024067
42 1 1 6.007351 5.798564 17.025598
43 1 1 6.336073 5.982316 16.974831
44 1 1 6.438567 6.345208 16.927888
45 1 1 6.569880 6.701718 16.935488
46 1 1 6.766078 6.977135 16.762134
47 1 1 6.835110 7.295167 16.958324
48 1 1 7.091544 7.542053 17.091323
49 1 1 7.342365 7.815138 17.174468
50 1 1 7.488428 8.087167 17.395976
51 1 1 7.690257 8.377259 17.256292
52 1 1 8.065046 8.437724 17.239642
53 1 1 8.248863 8.129040 17.115845
54 1 1 8.208370 7.783681 17.269102
55 1 1 7.951508 7.539258 17.132432
56 1 1 7.825137 7.299141 16.866398
57 1 1 7.568266 7.033996 16.776314
58 1 1 7.498582 6.716982 16.578713
59 1 1 7.320010 6.429327 16.406181
60 1 1 7.161664 6.404106 16.061667
61 1 1 6.987267 6.733562 15.987880
62 1 1 7.146691 7.013300 15.786063
63 1 1 7.051584 7.331840 15.601979
64 1 1 7.305682 7.614298 15.594804
65 1 1 7.252757 7.978907 15.687857
66 1 1 7.292908 8.274691 15.452697
67 1 1 7.542289 8.558512 15.412023
68 1 1 7.815258 8.820433 15.376169
69 1 1 8.134730 8.801813 15.171251
70 1 1 8.142316 8.458334 15.008879
71 1 1 8.308034 8.288110 14.712297
72 1 1 8.609110 8.417573 14.519964
73 1 1 8.881532 8.549339 14.749799
74 1 1 9.206474 8.740547 14.797253
75 1 1 9.198341 9.051125 15.016057
76 1 1 9.496897 9.097216 15.246578
77 1 1 9.635880 9.166930 15.593311
78 1 1 9.526990 9.083833 15.947765
79 1 1 9.361005 9.185099 16.274253
80 1 1 9.496866 9.125520 16.624099
81 1 1 9.577036 9.416217 16.855331
82 1 1 9.346426 9.711274 16.790829
83 1 1 9.543938 10.015346 16.904537
84 1 1 9.470935 10.348774 16.737517
85 1 1 9.347619 10.579959 16.462295
86 1 1 9.023759 10.421805 16.341873
87 1 1 8.786268 10.261297 16.092402
88 1 1 8.743561 10.036498 15.789018
89 1 1 8.726477 9.662150 15.852042
90 1 1 8.866322 9.377938 15.642121
91 1 1 8.702980 9.038036 15.688871
92 1 1 8.684038 8.803610 15.987344
93 1 1 8.672445 8.561093 16.279664
94 1 1 8.852280 8.262121 16.430246
95 1 1 8.679006 7.924004 16.422980
96 1 1 8.791811 7.756628 16.101017
97 1 1 8.730065 7.846210 15.736926
98 1 1 8.563865 7.597436 15.502643
99 1 1 8.249206 7.391730 15.447189
100 1 1 7.887567 7.285638 15.495787
101 1 1 7.740044 7.210304 15.153790
102 1 1 7.455143 7.020770 14.988539
103 1 1 7.534096 6.917147 14.631567
104 1 1 7.371145 6.747252 14.333268
105 1 1 7.091728 6.501030 14.408772
106 1 1 6.822498 6.232979 14.416775
107 1 1 6.651541 5.897202 14.367510
108 1 1 6.331534 5.771909 14.529676
109 1 1 5.970796 5.821847 14.638184
110 1 1 5.683756 5.638079 14.806224
111 1 1 5.368208 5.733380 14.995294
112 1 1 5.187762 6.029893 15.149952
113 1 1 5.006708 6.322852 14.989344
114 1 1 5.264988 6.516689 14.789049
115 1 1 5.145713 6.578648 14.433613
116 1 1 4.796185 6.690130 14.334610
117 1 1 4.775200 6.833726 13.983412
118 1 1 4.722276 6.995252 13.643547
119 1 1 4.892220 6.901233 13.316929
120 1 1 4.886470 6.937041 12.938663
121 1 1 4.881968 6.906401 12.559927
122 1 1 5.207839 6.791432 12.401846
123 1 1 5.538951 6.859969 12.228445
124 1 1 5.886165 6.706858 12.248427
125 1 1 5.950097 6.543995 11.911102
126 1 1 5.844671 6.292225 11.646721
127 1 1 5.757194 6.195888 11.289695
128 1 1 5.802393 6.239682 10.914943
129 1 1 5.764690 6.470507 10.615446
130 1 1 5.968268 6.596511 10.320355
131 1 1 5.916619 6.971231 10.284066
132 1 1 5.726047 7.298724 10.312888
133 1 1 5.895058 7.606324 10.167224
134 1 1 5.979646 7.976767 10.163119
135 1 1 5.866630 8.216903 10.435079
136 1 1 5.946216 8.279651 10.801315
137 1 1 6.223032 8.402978 11.030582
138 1 1 6.459083 8.687533 11.118377
139 1 1 6.604382 9.038085 11.138425
140 1 1 6.884883 9.293689 11.158064
141 1 1 7.060128 9.215771 11.486116
142 1 1 6.907362 9.381967 11.791797
143 1 1 7.021561 9.610451 12.073139
144 1 1 6.985456 9.818933 12.388784
145 1 1 7.288713 9.790621 12.616014
146 1 1 7.430169 9.902999 12.950321
147 1 1 7.390373 10.277672 12.999681
148 1 1 7.476801 10.552343 12.751716
149 1 1 7.777675 10.464951 12.536687
150 1 1 7.909272 10.776780 12.363930
151 1 1 7.610711 10.993719 12.273385
152 1 1 7.400201 11.237914 12.474518
153 1 1 7.339744 11.612127 12.501163
154 1 1 7.585795 11.898270 12.456652
155 1 1 7.559296 12.140109 12.748562
156 1 1 7.835341 12.161001 13.008874
157 1 1 7.976502 12.309806 13.328766
158 1 1 8.135440 12.295566 13.673637
159 1 1 8.379029 12.012392 13.743466
160 1 1 8.326523 11.734363 13.489807
161 1 1 8.143165 11.461233 13.680017
162 1 1 7.921544 11.646799 13.926694
163 1 1 7.681788 11.392595 14.076016
164 1 1 7.816361 11.064010 14.211374
165 1 1 7.774652 10.761554 14.437606
166 1 1 7.428366 10.793449 14.590800
167 1 1 7.096237 10.976227 14.616930
168 1 1 6.889854 11.295243 14.611060
169 1 1 6.517516 11.300077 14.535290
170 1 1 6.163384 11.180779 14.466306
171 1 1 5.847912 11.106300 14.267987
172 1 1 5.584642 11.375334 14.215935
173 1 1 5.370793 11.547199 14.478862
174 1 1 5.265912 11.620099 14.836753
175 1 1 5.175947 11.761760 15.177690
176 1 1 5.080518 12.007061 15.451772
177 1 1 5.087491 12.181283 15.789408
178 1 1 5.000859 11.949602 16.077885
179 1 1 5.051353 11.582051 15.995684
180 1 1 4.846050 11.407293 15.727896
181 1 1 4.741597 11.068243 15.864038
182 1 1 4.879629 10.867568 16.155718
183 1 1 5.201183 10.730733 16.304979
184 1 1 5.572883 10.809250 16.296353
185 1 1 5.676131 10.841319 15.932057
186 1 1 5.574303 11.111590 15.685106
187 1 1 5.657282 11.391067 15.441371
188 1 1 5.731048 11.745969 15.555404
189 1 1 5.816616 12.114600 15.589882
190 1 1 6.194190 12.145135 15.619975
191 1 1 6.445302 12.195498 15.339250
192 1 1 6.333117 12.055683 15.004188
193 1 1 6.611689 12.004829 14.750789
194 1 1 6.917554 12.166110 14.593197
195 1 1 7.112810 12.364549 14.334553
196 1 1 7.379369 12.130657 14.198020
197 1 1 7.208126 11.911918 13.938735
198 1 1 6.937540 11.669181 13.827998
199 1 1 6.733348 11.371251 13.709917
200 1 1 6.614003 11.020938 13.623678
201 1 1 6.747971 10.699483 13.471628
202 1 1 6.953649 10.466715 13.690525
203 1 1 6.759193 10.343100 13.992694
204 1 1 6.484431 10.100819 14.093716
205 1 1 6.228330 10.049665 13.817680
206 1 1 5.853864 9.986504 13.831316
207 1 1 5.682660 10.270049 14.017571
208 1 1 5.442370 10.522299 14.169330
209 1 1 5.282281 10.761968 14.416980
210 1 1 5.523603 10.769001 14.710433
211 1 1 5.830425 10.546625 14.738876
212 1 1 5.904018 10.174574 14.762597
213 1 1 5.886626 9.797972 14.714969
214 1 1 5.795873 9.516546 14.476299
215 1 1 6.003374 9.203634 14.534858
216 1 1 6.380154 9.214525 14.486714
217 1 1 6.719144 9.238469 14.656752
218 1 1 6.917239 8.936828 14.537710
219 1 1 6.914584 8.825918 14.174266
220 1 1 7.106269 9.044695 13.929737
221 1 1 7.219438 8.851606 13.622639
222 1 1 7.549351 8.672850 13.682670
223 1 1 7.685664 8.374293 13.874196
224 1 1 7.412982 8.280723 14.121763
225 1 1 7.287675 8.160824 14.459879
226 1 1 7.555469 7.945223 14.621752
227 1 1 7.702407 7.608954 14.523098
228 1 1 8.056787 7.559396 14.395197
229 1 1 8.293060 7.482305 14.682655
230 1 1 8.640092 7.327647 14.689701
231 1 1 8.602424 6.953980 14.747612
232 1 1 8.841047 6.768842 14.978227
233 1 1 9.186228 6.822085 14.828509
234 1 1 9.510800 7.002244 14.747298
235 1 1 9.608699 6.910855 14.391680
236 1 1 9.361110 6.842244 14.111694
237 1 1 9.153432 6.960328 13.816185
238 1 1 9.370882 6.917055 13.507570
239 1 1 9.727810 6.788804 13.484032
240 1 1 9.708800 6.420591 13.575997
241 1 1 9.838998 6.209343 13.863786
242 1 1 9.709209 6.196358 14.220698
243 1 1 9.622901 6.184205 14.590567
244 1 1 9.813700 6.147846 14.917177
245 1 1 10.125409 6.352388 14.990664
246 1 1 10.329651 6.445830 14.684146
247 1 1 10.476847 6.734617 14.485814
248 1 1 10.547682 7.095152 14.582755
249 1 1 10.669685 7.401297 14.771938
250 1 1 11.005269 7.528399 14.646923
251 1 1 11.163673 7.756563 14.387599
252 1 1 11.290296 7.926995 14.072449
253 1 1 11.298354 8.045028 13.711335
254 1 1 11.402372 8.197465 13.379155
255 1 1 11.632126 8.071009 13.104161
256 1 1 11.570326 7.776687 12.871878
257 1 1 11.882125 7.585167 12.769400
258 1 1 12.050047 7.374178 12.501658
259 1 1 12.117110 7.014564 12.398798
260 1 1 11.844066 6.792434 12.541994
261 1 1 11.723038 6.858877 12.896025
262 1 1 11.377318 6.984080 12.991952
263 1 1 11.102195 6.894117 13.238150
264 1 1 10.749138 6.974696 13.123005
265 1 1 10.752293 7.153057 12.787480
266 1 1 10.595717 7.463017 12.633178
267 1 1 10.324549 7.523167 12.373853
268 1 1 9.974472 7.447782 12.246718
269 1 1 9.674307 7.478229 12.015690
270 1 1 9.329931 7.624013 12.083158
271 1 1 8.999266 7.452243 12.157696
272 1 1 8.682929 7.661573 12.135076
273 1 1 8.399015 7.914144 12.135864
274 1 1 8.068841 7.789452 11.995020
275 1 1 7.723081 7.837487 12.145163
276 1 1 7.666454 8.046780 12.457236
277 1 1 7.804335 8.394360 12.524889
278 1 1 8.102410 8.443250 12.755456
279 1 1 8.459387 8.392828 12.875561
280 1 1 8.818440 8.458326 12.769773
281 1 1 9.132236 8.599750 12.608742
282 1 1 9.316889 8.650983 12.280598
283 1 1 9.260538 8.731151 11.913450
284 1 1 9.027674 8.495050 11.727895
285 1 1 8.992327 8.647423 11.381582
286 1 1 9.173063 8.819726 11.095144
287 1 1 9.551104 8.796943 11.064069
288 1 1 9.654427 8.438161 11.134782
289 1 1 9.478368 8.144742 10.969531
290 1 1 9.320977 8.232899 10.635081
291 1 1 9.041452 8.092501 10.419317
292 1 1 8.838393 7.795583 10.296815
293 1 1 9.058578 7.527804 10.141209
294 1 1 9.178717 7.507453 9.781275
295 1 1 9.112158 7.345246 9.444142
296 1 1 8.823532 7.201766 9.242875
297 1 1 8.749837 7.325555 8.891243
298 1 1 8.429989 7.402925 8.701215
299 1 1 8.088802 7.318093 8.845419
300 1 1 7.807725 7.214382 9.079171
301 1 1 7.740305 7.472053 9.350206
302 1 1 7.374465 7.505098 9.447516
303 1 1 7.034559 7.552348 9.610707
304 1 1 6.665718 7.526782 9.522943
305 1 1 6.309402 7.545186 9.653710
306 1 1 5.948803 7.506028 9.540417
307 1 1 5.625061 7.328828 9.630920
308 1 1 5.274487 7.200188 9.560563
309 1 1 5.276032 6.825492 9.497315
310 1 1 5.124568 6.515660 9.656887
311 1 1 4.775644 6.388904 9.575738
312 1 1 4.742746 6.032382 9.703058
313 1 1 5.008229 5.760556 9.697634
314 1 1 4.963462 5.407606 9.831133
315 1 1 4.728831 5.425553 10.129506
316 1 1 4.501477 5.203171 10.337488
317 1 1 4.257518 5.038026 10.577511
318 1 1 4.328400 4.817366 10.878650
319 1 1 4.252412 4.970797 11.217892
320 1 1 4.027561 4.806608 11.476512
321 1 1 3.897453 4.512045 11.678265
322 1 1 3.548268 4.533577 11.826610
323 1 1 3.344806 4.833504 11.712386
324 1 1 3.109749 5.090248 11.559970
325 1 1 3.087055 5.456059 11.660308
326 1 1 3.442400 5.581743 11.708610
327 1 1 3.601226 5.916468 11.624149
328 1 1 3.752039 6.106086 11.331403
329 1 1 4.108708 5.986233 11.278268
330 1 1 4.224560 5.711621 11.042543
331 1 1 4.601181 5.683490 11.084554
332 1 1 4.818333 5.484424 10.844516
333 1 1 5.173095 5.511585 10.977956
334 1 1 5.228486 5.468074 11.351371
335 1 1 5.400000 5.518568 11.686681
336 1 1 5.584333 5.343807 11.969311
337 1 1 5.472992 5.227055 12.313364
338 1 1 5.444214 4.872324 12.446546
339 1 1 5.586675 4.642183 12.179824
340 1 1 5.594733 4.468494 11.841938
341 1 1 5.533591 4.137933 11.664762
342 1 1 5.239930 3.989604 11.474600
343 1 1 5.241240 3.626231 11.363432
344 1 1 5.282359 3.254441 11.430373
345 1 1 5.647632 3.150435 11.417772
346 1 1 5.839587 3.131143 11.745157
347 1 1 6.120691 2.906403 11.867109
348 1 1 5.972965 2.580388 11.994746
349 1 1 5.891141 2.453821 12.343580
350 1 1 5.758446 2.103551 12.407636
351 1 1 5.981147 1.825236 12.275936
352 1 1 5.965236 1.734958 11.907158
353 1 1 6.226101 1.688996 11.634694
354 1 1 6.371284 1.627574 11.288935
355 1 1 6.415236 1.792468 10.949409
356 1 1 6.532879 1.949882 10.624169
357 1 1 6.735613 1.986754 10.304889
358 1 1 6.645593 1.783903 9.996428
359 1 1 6.528614 1.668185 9.653901
360 1 1 6.826086 1.725041 9.424385
361 1 1 6.903064 2.095513 9.459376
362 1 1 6.730871 2.434255 9.457546
363 1 1 6.673878 2.714223 9.708085
364 1 1 6.619752 2.777471 10.078855
365 1 1 6.860109 2.937785 10.325691
366 1 1 7.234959 2.890776 10.366651
367 1 1 7.389565 2.854439 10.021432
368 1 1 7.661031 3.106195 9.935846
369 1 1 7.889300 3.102710 9.632068
370 1 1 8.055235 3.125570 9.290977
371 1 1 8.320358 3.040176 9.032486
372 1 1 8.176007 3.143825 8.696600
373 1 1 7.909551 3.414575 8.686817
374 1 1 7.564868 3.254599 8.685568
375 1 1 7.445325 3.101280 9.012069
376 1 1 7.134897 3.241400 9.180594
377 1 1 6.780602 3.311418 9.298799
378 1 1 6.610938 3.513181 9.572489
379 1 1 6.319709 3.687524 9.743340
380 1 1 5.971112 3.634587 9.601644
381 1 1 5.620913 3.694826 9.466988
382 1 1 5.468744 3.995463 9.291313
383 1 1 5.243604 4.217933 9.081029
384 1 1 4.907143 4.044475 9.047775
385 1 1 4.794428 3.688319 9.117408
386 1 1 4.619750 3.404634 9.300193
387 1 1 4.242509 3.417693 9.256389
388 1 1 3.978156 3.680696 9.329511
389 1 1 4.057170 3.972712 9.559475
390 1 1 3.980775 4.342896 9.598556
391 1 1 3.623367 4.374315 9.723746
392 1 1 3.374270 4.607510 9.890989
393 1 1 2.998218 4.564168 9.924256
394 1 1 2.644368 4.565966 10.062773
395 1 1 2.363674 4.357783 9.913540
396 1 1 2.121078 4.350155 9.621156
397 1 1 2.298984 4.369789 9.285949
398 1 1 2.411975 4.231262 8.950623
399 1 1 2.616128 4.046170 8.688970
400 1 1 2.873087 4.057047 8.409231
401 1 1 3.244483 4.135082 8.428608
402 1 1 3.464772 3.950887 8.179721
403 1 1 3.840818 3.913333 8.139981
404 1 1 4.117390 4.136950 8.006178
405 1 1 4.471726 4.002099 7.980454
406 1 1 4.643329 4.075526 7.649454
407 1 1 4.799209 4.355026 7.444561
408 1 1 4.564883 4.438709 7.157353
409 1 1 4.407101 4.111138 7.046889
410 1 1 4.671002 3.907570 6.864362
411 1 1 4.807289 3.825903 6.519171
412 1 1 5.125577 3.618910 6.534872
413 1 1 5.268068 3.653247 6.885467
414 1 1 5.334394 3.369599 7.129485
415 1 1 5.219470 3.008511 7.101056
416 1 1 5.365591 2.702852 7.273164
417 1 1 5.244165 2.439536 7.518766
418 1 1 5.313181 2.199952 7.805535
419 1 1 5.251480 2.030605 8.140072
420 1 1 4.961888 2.112153 8.372206
421 1 1 4.692247 2.023837 8.624979
422 1 1 4.598537 1.660427 8.684573
423 1 1 4.507346 1.321693 8.538479
424 1 1 4.545295 1.243119 8.168633
425 1 1 4.836804 1.000741 8.142643
426 1 1 4.990526 0.809411 7.852535
427 1 1 5.369082 0.822384 7.822087
428 1 1 5.664453 0.984750 7.997567
429 1 1 6.022121 1.107353 8.035542
430 1 1 6.343906 0.934486 8.140286
431 1 1 6.586456 0.645554 8.094592
432 1 1 6.731168 0.692649 7.746397
433 1 1 6.753454 0.354170 7.575122
434 1 1 6.672972 35.168898 7.587684
435 1 1 6.781396 35.027841 7.251905
436 1 1 7.122444 0.008409 7.232495
437 1 1 6.981135 0.164024 6.915927
438 1 1 6.774564 0.345361 6.653543
439 1 1 6.407500 0.439339 6.682391
440 1 1 6.193244 0.131394 6.742924
441 1 1 6.079896 34.998313 6.915570
442 1 1 5.750818 34.993231 6.725618
443 1 1 5.441755 34.937324 6.511714
444 1 1 5.317407 34.582585 6.567374
445 1 1 5.592144 34.325125 6.516050
446 1 1 5.785018 34.033660 6.366894
447 1 1 5.898835 33.768204 6.119956
448 1 1 5.933300 33.760707 5.741596
449 1 1 5.728787 33.826795 5.428217
450 1 1 5.401701 33.793089 5.237747
451 1 1 4.282459 5.801133 15.116951
452 1 1 4.583281 5.971436 15.274758
453 1 1 4.916115 6.145297 15.333015
454 1 1 5.191302 6.361149 15.481608
455 1 1 5.514781 6.557907 15.513976
456 1 1 5.761743 6.824987 15.623874
457 1 1 5.873451 7.188169 15.619350
458 1 1 6.053497 7.280913 15.940881
459 1 1 5.864296 7.441609 16.228596
460 1 1 5.707062 7.524906 16.564363
461 1 1 5.861969 7.832112 16.725696
462 1 1 6.006859 8.132412 16.543414
463 1 1 5.972668 8.436900 16.768177
464 1 1 5.854051 8.510138 17.121682
465 1 1 5.969942 8.315988 17.427092
466 1 1 5.749910 8.013997 17.496282
467 1 1 5.403517 7.940510 17.358402
468 1 1 5.298032 7.584736 17.440241
469 1 1 5.274770 7.303334 17.694548
470 1 1 5.624079 7.231657 17.825869
471 1 1 5.639693 6.870089 17.941735
472 1 1 5.429034 6.580439 17.814748
473 1 1 5.357859 6.230258 17.685491
474 1 1 5.550357 5.942069 17.841347
475 1 1 5.601800 5.660788 18.091616
476 1 1 5.765266 5.398701 18.312951
477 1 1 6.007208 5.253154 18.567274
478 1 1 6.226394 4.966970 18.447038
479 1 1 6.244273 4.727817 18.741803
480 1 1 6.174819 4.833882 19.100030
481 1 1 5.883145 4.983920 19.291902
482 1 1 5.705002 5.292597 19.423749
483 1 1 5.558268 5.531122 19.166894
484 1 1 5.252144 5.374516 19.005145
485 1 1 5.257020 4.999192 18.945918
486 1 1 5.427061 4.821337 18.656343
487 1 1 5.547174 4.520728 18.457327
488 1 1 5.677443 4.636477 18.119640
489 1 1 6.004241 4.565010 17.939376
490 1 1 6.349339 4.610450 17.786920
491 1 1 6.729265 4.602961 17.786403
492 1 1 7.048056 4.403767 17.842025
493 1 1 7.330581 4.181250 17.964767
494 1 1 7.311870 3.801886 17.953240
495 1 1 7.651220 3.655936 17.864132
496 1 1 7.994572 3.614305 18.021537
497 1 1 8.325178 3.634021 17.835228
498 1 1 8.639716 3.754112 18.011420
499 1 1 8.842033 3.444287 18.097887
500 1 1 8.988555 3.339657 18.432527
501 1 1 9.128260 3.545543 18.719744
502 1 1 9.428448 3.554897 18.952551
503 1 1 9.764389 3.631539 19.112769
504 1 1 10.000004 3.857195 18.917923
505 1 1 10.195809 4.128374 19.098263
506 1 1 10.548155 4.204449 18.977991
507 1 1 10.737920 4.434149 18.742137
508 1 1 10.835036 4.756749 18.917915
509 1 1 10.940655 5.114945 18.847629
510 1 1 11.003959 5.363337 18.567104
511 1 1 11.015307 5.363113 18.187274
512 1 1 11.184212 5.533248 17.892444
513 1 1 11.554332 5.447158 17.893014
514 1 1 11.932805 5.447125 17.927038
515 1 1 12.229022 5.209104 17.928427
516 1 1 12.134111 4.911408 18.144689
517 1 1 12.073030 4.579554 17.969926
518 1 1 11.961958 4.484558 17.619158
519 1 1 12.132288 4.242274 17.381069
520 1 1 12.336362 3.961972 17.225555
521 1 1 12.108871 3.817049 16.957889
522 1 1 11.878812 3.685113 16.685739
523 1 1 11.734357 3.858745 16.380150
524 1 1 11.736262 4.231638 16.453274
525 1 1 11.725969 4.609270 16.494368
526 1 1 11.534992 4.855807 16.277233
527 1 1 11.230753 4.975198 16.083366
528 1 1 11.041847 4.724348 15.869384
529 1 1 11.090686 4.672461 15.496125
530 1 1 11.168728 4.432813 15.211733
531 1 1 10.967235 4.283110 14.926444
532 1 1 10.862441 4.571042 14.701693
533 1 1 10.497154 4.588304 14.598409
534 1 1 10.122200 4.539138 14.561097
535 1 1 9.889158 4.446536 14.275586
536 1 1 9.860078 4.475626 13.897819
537 1 1 9.680322 4.573769 13.577732
538 1 1 9.893621 4.603468 13.264648
539 1 1 9.890999 4.866062 12.989990
540 1 1 9.986443 4.781260 12.632080
541 1 1 9.998338 4.438163 12.469161
542 1 1 9.995896 4.133403 12.696131
543 1 1 10.027539 3.821936 12.480755
544 1 1 10.360100 3.638080 12.480176
545 1 1 10.595784 3.692940 12.773167
546 1 1 10.792319 3.470903 13.010808
547 1 1 10.807919 3.149803 13.213421
548 1 1 10.867735 2.891885 13.486001
549 1 1 11.006787 2.817595 13.831755
550 1 1 10.807349 2.518810 13.955657
551 1 1 10.568522 2.461458 14.245610
552 1 1 10.383538 2.580248 14.555561
553 1 1 10.060472 2.385066 14.599523
554 1 1 9.722622 2.460156 14.442618
555 1 1 9.459190 2.202028 14.351113
556 1 1 9.463697 1.822881 14.376160
557 1 1 9.688618 1.711149 14.661338
558 1 1 9.818627 1.355466 14.692757
559 1 1 9.889345 1.112048 14.975859
560 1 1 9.689191 0.831961 15.136764
561 1 1 9.575949 0.472301 15.183886
562 1 1 9.295137 0.342184 15.404372
563 1 1 9.095261 0.441977 15.711766
564 1 1 8.825201 0.686475 15.819879
565 1 1 8.514260 0.792698 16.010752
566 1 1 8.481227 1.123789 16.194294
567 1 1 8.272281 1.041752 16.500907
568 1 1 8.215819 1.303272 16.770757
569 1 1 8.468421 1.410655 17.033552
570 1 1 8.564122 1.443234 17.399858
571 1 1 8.592469 1.815425 17.471063
572 1 1 8.827073 2.099594 17.378279
573 1 1 8.982603 2.102285 17.031575
574 1 1 8.726749 1.969545 16.783949
575 1 1 8.726349 1.822931 16.433372
576 1 1 8.748494 1.862887 16.056128
577 1 1 8.758209 1.717615 15.705127
578 1 1 8.459423 1.563542 15.527961
579 1 1 8.330866 1.720863 15.206833
580 1 1 8.607538 1.803568 14.959827
581 1 1 8.668044 2.118160 14.755447
582 1 1 8.573882 2.431885 14.562806
583 1 1 8.771357 2.552787 14.261499
584 1 1 9.018897 2.812385 14.386929
585 1 1 9.268660 3.057794 14.534554
586 1 1 9.637310 3.066253 14.442763
587 1 1 9.857554 3.295512 14.650928
588 1 1 10.034556 3.478885 14.932787
589 1 1 9.855810 3.656927 15.216955
590 1 1 10.065042 3.766255 15.514729
591 1 1 10.110254 4.143555 15.514087
592 1 1 10.103853 4.481307 15.340070
593 1 1 10.332558 4.767514 15.440966
594 1 1 10.421079 5.075414 15.236608
595 1 1 10.456362 5.422687 15.086421
596 1 1 10.703517 5.437322 14.798150
597 1 1 11.045590 5.598677 14.761393
598 1 1 11.195176 5.772126 15.064608
599 1 1 11.069832 6.116114 15.166398
600 1 1 11.226685 6.404368 15.357989
601 1 1 11.274624 6.683380 15.104505
602 1 1 11.058169 6.806087 14.817294
603 1 1 10.982741 7.130775 14.634842
604 1 1 10.906736 7.451246 14.445311
605 1 1 11.010617 7.577846 14.102410
606 1 1 10.924757 7.887095 13.898956
607 1 1 10.643212 7.915289 13.645309
608 1 1 10.295948 7.974880 13.502982
609 1 1 10.080311 7.665193 13.458324
610 1 1 9.813242 7.671398 13.728575
611 1 1 9.744431 7.321511 13.859893
612 1 1 9.494588 7.288907 14.144350
613 1 1 9.590978 7.069707 14.439409
614 1 1 9.520210 7.196140 14.790701
615 1 1 9.368644 7.544429 14.801792
616 1 1 9.640918 7.808119 14.828893
617 1 1 9.562799 8.178785 14.798830
618 1 1 9.235703 8.294418 14.953870
619 1 1 9.288662 8.430223 15.304800
620 1 1 9.577776 8.307454 15.518671
621 1 1 9.608495 8.392518 15.887751
622 1 1 9.784553 8.373551 16.223971
623 1 1 9.982015 8.189972 16.491754
624 1 1 10.240999 7.968780 16.323227
625 1 1 10.063776 7.781230 16.044271
626 1 1 9.776771 7.612460 15.861118
627 1 1 9.407528 7.524184 15.877458
628 1 1 9.067596 7.581095 15.717436
629 1 1 8.974068 7.254654 15.546882
630 1 1 9.250675 7.004792 15.620757
631 1 1 9.627969 6.985942 15.661914
632 1 1 9.727533 6.665339 15.839961
633 1 1 9.823598 6.297682 15.840213
634 1 1 9.636062 5.989175 15.721666
635 1 1 9.507067 5.734092 15.972051
636 1 1 9.517975 5.863690 16.329102
637 1 1 9.558772 5.932656 16.700558
638 1 1 9.841082 6.118615 16.874111
639 1 1 10.208912 6.203242 16.918154
640 1 1 10.327273 6.330259 17.256174
641 1 1 10.695350 6.303121 17.346633
642 1 1 10.844337 5.975165 17.467660
643 1 1 11.101790 5.857501 17.214139
644 1 1 11.447438 5.799949 17.067117
645 1 1 11.774349 5.986337 17.014307
646 1 1 12.137732 5.922123 16.923591
647 1 1 12.390454 6.194346 17.003752
648 1 1 12.264288 6.497751 17.194613
649 1 1 12.291887 6.784534 17.442391
650 1 1 12.449411 6.871270 17.777149
651 1 1 12.422115 6.898201 18.155209
652 1 1 12.491612 7.129152 18.448862
653 1 1 12.663003 7.336442 18.717294
654 1 1 12.794509 7.372425 19.071993
655 1 1 13.032969 7.413084 19.365052
656 1 1 13.138993 7.175644 19.642146
657 1 1 13.053086 6.812731 19.569250
658 1 1 12.988736 6.560651 19.846224
659 1 1 13.173482 6.616346 20.173588
660 1 1 13.512154 6.783663 20.132283
661 1 1 13.855655 6.754233 19.972469
662 1 1 14.084015 6.461188 19.892615
663 1 1 14.205237 6.361843 19.546442
664 1 1 14.572661 6.294345 19.476844
665 1 1 14.856461 6.481952 19.307549
666 1 1 15.117231 6.666852 19.102095
667 1 1 15.134291 6.934995 18.833380
668 1 1 14.968133 7.237936 18.991552
669 1 1 14.941761 7.496404 19.268859
670 1 1 14.653580 7.720284 19.162891
671 1 1 14.660273 7.936862 18.850722
672 1 1 14.585419 7.931267 18.478209
673 1 1 14.306683 8.111633 18.293347
674 1 1 14.042758 8.033466 18.031368
675 1 1 14.176147 7.879367 17.710648
676 1 1 14.139834 7.548411 17.527483
677 1 1 13.789115 7.425666 17.607043
678 1 1 13.561243 7.311386 17.888848
679 1 1 13.409973 7.328226 18.237035
680 1 1 13.621295 7.147951 18.496349
681 1 1 13.397426 7.034191 18.781553
682 1 1 13.128414 6.767251 18.753705
683 1 1 12.992901 6.711611 18.403076
684 1 1 13.207975 6.523050 18.152901
685 1 1 13.502611 6.706660 17.998378
686 1 1 13.855914 6.566838 17.993154
687 1 1 13.932032 6.245385 17.805340
688 1 1 13.874855 5.897617 17.947424
689 1 1 13.945688 5.527708 17.997926
690 1 1 14.238314 5.285877 18.014894
691 1 1 14.555159 5.395719 17.836166
692 1 1 14.767103 5.681238 17.970178
693 1 1 15.137656 5.653177 18.049569
694 1 1 15.406499 5.454142 18.229871
695 1 1 15.547496 5.584046 18.557964
696 1 1 15.390261 5.368265 18.828363
697 1 1 15.620598 5.276345 19.116279
698 1 1 15.992361 5.320859 19.051393
699 1 1 16.309078 5.501609 19.158258
700 1 1 16.315520 5.836650 19.337438
701 1 1 16.103669 5.802093 19.651006
702 1 1 16.088845 5.560006 19.943537
703 1 1 16.341198 5.281253 19.998443
704 1 1 16.472056 5.288048 20.355136
705 1 1 16.741390 5.053391 20.484732
706 1 1 16.580412 4.799894 20.717595
707 1 1 16.289897 4.899172 20.941526
708 1 1 16.232979 5.265799 21.023652
709 1 1 15.952015 5.417222 20.817424
710 1 1 15.645783 5.549251 20.999606
711 1 1 15.296385 5.511275 20.855111
712 1 1 15.251298 5.526693 20.478110
713 1 1 15.118918 5.863665 20.362673
714 1 1 14.742689 5.849172 20.414066
715 1 1 14.411571 6.008063 20.316524
716 1 1 14.083934 6.033369 20.507348
717 1 1 14.010079 5.803167 20.800524
718 1 1 14.088587 5.857968 21.168265
719 1 1 14.295455 5.954664 21.472001
720 1 1 14.193436 5.754030 21.778168
721 1 1 13.927736 5.509576 21.659652
722 1 1 13.955341 5.139045 21.579997
723 1 1 14.268755 5.012593 21.753727
724 1 1 14.575085 4.824868 21.877506
725 1 1 14.886849 5.042084 21.882025
726 1 1 15.096265 5.281228 21.673806
727 1 1 15.233065 5.597102 21.512843
728 1 1 15.432522 5.843073 21.722880
729 1 1 15.756825 6.040043 21.743619
730 1 1 15.955103 5.961159 21.429194
731 1 1 16.329917 5.900820 21.445729
732 1 1 16.694164 6.007739 21.428623
733 1 1 16.985343 6.182602 21.258219
734 1 1 17.323709 6.343566 21.194980
735 1 1 17.657680 6.490303 21.088529
736 1 1 17.645860 6.545216 20.712703
737 1 1 17.657049 6.260382 20.461418
738 1 1 17.294209 6.163175 20.403994
739 1 1 16.945788 6.243900 20.275596
740 1 1 16.969492 6.570187 20.082269
741 1 1 16.652186 6.642198 19.885974
742 1 1 16.604719 6.358116 19.638095
743 1 1 16.953115 6.241854 19.540610
744 1 1 16.994783 6.305806 19.168354
745 1 1 17.242083 6.402254 18.896435
746 1 1 17.513667 6.377782 18.631778
747 1 1 17.859356 6.445173 18.489097
748 1 1 17.989062 6.658314 18.202484
749 1 1 18.135466 6.641411 17.852227
750 1 1 18.277360 6.320656 17.706000
751 1 1 18.107884 5.980562 17.702246
752 1 1 18.131249 5.645129 17.525219
753 1 1 17.956549 5.369264 17.719588
754 1 1 17.666159 5.173700 17.571844
755 1 1 17.476526 5.231752 17.247700
756 1 1 17.734431 5.208736 16.969572
757 1 1 18.035663 4.977182 16.976064
758 1 1 18.258047 4.682046 16.887521
759 1 1 18.531109 4.448359 17.010922
760 1 1 18.825482 4.295601 17.196420
761 1 1 19.026287 4.458934 17.474628
762 1 1 19.129180 4.731718 17.718353
763 1 1 19.306724 5.059806 17.790715
764 1 1 19.653217 5.212182 17.757181
765 1 1 19.752265 5.468475 18.019676
766 1 1 19.528267 5.772281 17.975781
767 1 1 19.289252 5.968518 18.196604
768 1 1 19.101515 6.157684 18.467475
769 1 1 19.065298 6.441893 18.717101
770 1 1 19.159896 6.692512 18.986622
771 1 1 19.222732 7.067275 18.984479
772 1 1 19.129773 7.396929 18.819898
773 1 1 19.077651 7.735160 18.654722
774 1 1 19.040604 8.046218 18.869827
775 1 1 19.019059 8.363647 19.077613
776 1 1 19.027469 8.308252 19.453460
777 1 1 19.343154 8.164495 19.608629
778 1 1 19.332142 7.868389 19.846537
779 1 1 19.021025 7.667060 19.930634
780 1 1 18.881251 7.830709 20.243815
781 1 1 18.773924 8.134092 20.445904
782 1 1 18.542738 8.212260 20.737181
783 1 1 18.191735 8.330200 20.822546
784 1 1 17.927859 8.070982 20.909584
785 1 1 17.684773 7.952909 20.642436
786 1 1 17.581374 8.270552 20.461296
787 1 1 17.432725 8.165249 20.127806
788 1 1 17.156686 7.977600 19.946174
789 1 1 17.123518 7.607321 19.867478
790 1 1 17.110900 7.299967 19.644376
791 1 1 17.373146 7.052714 19.764763
792 1 1 17.656882 6.894657 19.567504
793 1 1 17.644297 6.607343 19.319124
794 1 1 18.000061 6.533174 19.208079
795 1 1 18.275088 6.318709 19.358961
796 1 1 18.625433 6.182437 19.303389
797 1 1 19.002590 6.148038 19.272254
798 1 1 19.290601 6.290927 19.474819
799 1 1 19.630877 6.125178 19.508572
800 1 1 19.993778 6.188984 19.415665
801 1 1 20.331938 6.281816 19.562054
802 1 1 20.410430 6.624172 19.707076
803 1 1 20.388123 6.723912 20.073074
804 1 1 20.253503 6.973387 20.326134
805 1 1 20.001844 7.112819 20.574381
806 1 1 19.927335 7.472694 20.671017
807 1 1 20.176068 7.607079 20.924932
808 1 1 20.553265 7.638472 20.958641
809 1 1 20.847796 7.398370 20.956831
810 1 1 21.045021 7.093179 21.068009
811 1 1 21.314768 6.825565 21.063625
812 1 1 21.642563 6.784451 20.875848
813 1 1 21.891917 7.056012 20.967919
814 1 1 22.167761 7.250686 20.793529
815 1 1 22.532836 7.319961 20.873034
816 1 1 22.861085 7.175539 20.747356
817 1 1 23.059453 6.869775 20.639845
818 1 1 23.273346 6.739645 20.353985
819 1 1 23.154723 6.402300 20.225428
820 1 1 23.153546 6.064070 20.052226
821 1 1 22.929196 5.929263 19.776737
822 1 1 23.021089 6.036579 19.423978
823 1 1 23.138218 6.372881 19.291381