LAMMPS data file for polymer system

27000 atoms
26940 bonds

1 atom types
1 bond types

0.0 35.1858945654143 xlo xhi
0.0 35.1858945654143 ylo yhi
0.0 35.1858945654143 zlo zhi

Masses

1 5.65487

Atoms

1 1 1 10.987801 13.116378 33.068436
2 1 1 10.806961 12.861352 32.852430
3 1 1 10.613770 12.613236 32.639086
4 1 1 10.249120 12.506577 32.631695
5 1 1 10.010139 12.336728 32.389952
6 1 1 10.109533 12.157545 32.069930
7 1 1 10.388242 12.263628 31.834414
8 1 1 10.449485 12.630583 31.911831
9 1 1 10.470113 12.964247 31.731159
10 1 1 10.395073 13.326726 31.817055
11 1 1 10.508866 13.388905 32.174245
12 1 1 10.583285 13.706449 32.369252
13 1 1 10.808969 14.008585 32.322556
14 1 1 10.747733 14.371289 32.417929
15 1 1 10.823627 14.741918 32.453625
16 1 1 10.955520 14.935192 32.154210
17 1 1 11.176153 14.851264 31.856423
18 1 1 11.380529 14.633183 31.621750
19 1 1 11.277237 14.268178 31.644171
20 1 1 11.275645 13.931007 31.468920
21 1 1 11.511924 13.683359 31.303865
22 1 1 11.829103 13.770847 31.113751
23 1 1 12.132472 13.949562 30.970824
24 1 1 12.076754 14.215651 30.705320
25 1 1 12.060463 14.452590 30.408681
26 1 1 11.930180 14.785878 30.280832
27 1 1 11.735988 14.903681 29.976182
28 1 1 11.558616 14.592995 29.848066
29 1 1 11.195941 14.618026 29.737431
30 1 1 11.017890 14.324631 29.900579
31 1 1 11.195705 14.035869 30.072037
32 1 1 11.412273 13.738770 29.975960
33 1 1 11.702209 13.689857 30.216676
34 1 1 11.662977 13.376010 30.427296
35 1 1 11.569788 13.010028 30.385194
36 1 1 11.616926 12.788937 30.079749
37 1 1 11.841095 12.721924 29.780320
38 1 1 11.852225 12.944117 29.472251
39 1 1 12.164686 13.038590 29.277719
40 1 1 12.136177 13.096067 28.903174
41 1 1 12.056781 12.909605 28.581727
42 1 1 11.914369 12.560708 28.532839
43 1 1 12.087254 12.237510 28.432570
44 1 1 12.455926 12.148671 28.456827
45 1 1 12.660109 12.458478 28.374797
46 1 1 12.974244 12.643965 28.268432
47 1 1 12.947707 12.665487 27.889971
48 1 1 13.136212 12.377497 27.728950
49 1 1 13.288969 12.107939 27.948959
50 1 1 13.516617 11.804879 27.921916
51 1 1 13.796301 11.618982 28.099734
52 1 1 13.768553 11.245062 28.161493
53 1 1 13.587497 10.922962 28.250210
54 1 1 13.559334 10.849241 28.621925
55 1 1 13.562010 10.765297 28.992527
56 1 1 13.704241 10.414664 29.027552
57 1 1 13.842109 10.196610 28.748545
58 1 1 14.032792 9.882444 28.845187
59 1 1 13.970232 9.616421 29.109228
60 1 1 14.111367 9.361038 29.352663
61 1 1 14.389913 9.103019 29.368101
62 1 1 14.666455 8.917756 29.551410
63 1 1 14.998437 8.945829 29.734167
64 1 1 15.256594 8.708908 29.587118
65 1 1 15.435039 8.413398 29.428275
66 1 1 15.369866 8.052271 29.526965
67 1 1 15.214525 7.738599 29.379048
68 1 1 15.372956 7.426986 29.230062
69 1 1 15.579988 7.230351 29.480806
70 1 1 15.915432 7.291076 29.648704
71 1 1 16.166563 7.498212 29.452673
72 1 1 16.411512 7.307395 29.233610
73 1 1 16.735215 7.206674 29.061937
74 1 1 17.094983 7.084903 29.073699
75 1 1 17.388638 6.986158 29.293737
76 1 1 17.665388 6.778343 29.450650
77 1 1 17.642092 6.406699 29.374901
78 1 1 17.842484 6.265822 29.084391
79 1 1 17.648526 6.283778 28.758112
80 1 1 17.318215 6.143213 28.633467
81 1 1 17.151694 5.806289 28.577318
82 1 1 16.832949 5.802161 28.784162
83 1 1 16.658712 6.052257 29.011085
84 1 1 16.821448 6.393542 29.049052
85 1 1 16.968219 6.550316 29.362548
86 1 1 16.869532 6.345314 29.666908
87 1 1 17.132667 6.397481 29.936053
88 1 1 17.352068 6.651225 30.114596
89 1 1 17.435628 6.692483 30.482992
90 1 1 17.454873 7.020960 30.673077
91 1 1 17.620851 7.320592 30.837613
92 1 1 17.767493 7.344235 31.187380
93 1 1 17.829418 7.149180 31.507566
94 1 1 17.596833 6.886429 31.653394
95 1 1 17.224299 6.918873 31.720964
96 1 1 17.062151 7.247122 31.619179
97 1 1 16.750963 7.284777 31.404367
98 1 1 16.473198 7.352607 31.154076
99 1 1 16.339801 7.369692 30.798670
100 1 1 16.614273 7.344108 30.537116
101 1 1 16.958701 7.394960 30.689377
102 1 1 17.108318 7.741185 30.643084
103 1 1 16.946339 8.072920 30.733164
104 1 1 16.616807 8.214512 30.607623
105 1 1 16.299064 8.161710 30.406002
106 1 1 16.137854 7.926609 30.154727
107 1 1 15.761123 7.947341 30.109524
108 1 1 15.620394 8.230465 30.320324
109 1 1 15.439360 8.132817 30.639841
110 1 1 15.476152 7.780130 30.776437
111 1 1 15.740036 7.507105 30.791349
112 1 1 15.836739 7.415588 31.147260
113 1 1 15.940353 7.492968 31.504579
114 1 1 15.965342 7.509333 31.883403
115 1 1 16.133058 7.639031 32.198760
116 1 1 16.480486 7.775401 32.127366
117 1 1 16.524185 7.973235 31.805882
118 1 1 16.723839 7.887320 31.494182
119 1 1 17.052625 7.805016 31.322352
120 1 1 17.398309 7.954406 31.373196
121 1 1 17.569546 8.251331 31.209144
122 1 1 17.672971 8.233047 30.843947
123 1 1 17.913438 7.960948 30.731978
124 1 1 18.240468 7.995777 30.922342
125 1 1 18.342373 8.044594 31.285154
126 1 1 18.204504 8.195994 31.605264
127 1 1 18.098965 7.911377 31.833857
128 1 1 18.069722 7.577465 32.012875
129 1 1 18.099748 7.284474 32.252989
130 1 1 18.231839 7.380912 32.595993
131 1 1 18.067548 7.210811 32.893440
132 1 1 18.171830 6.990913 33.185279
133 1 1 18.229589 7.176984 33.511533
134 1 1 18.500277 7.143552 33.776128
135 1 1 18.605576 7.016953 34.118597
136 1 1 18.403442 6.839292 34.386885
137 1 1 18.239398 7.103193 34.605622
138 1 1 18.260383 7.449536 34.760560
139 1 1 18.393178 7.793321 34.853174
140 1 1 18.350465 8.109090 34.646135
141 1 1 18.315713 8.434516 34.839242
142 1 1 18.021856 8.580647 35.030798
143 1 1 17.721045 8.673610 0.057672
144 1 1 17.959057 8.757518 0.341766
145 1 1 18.119300 9.028516 0.554562
146 1 1 18.371759 9.307984 0.605182
147 1 1 18.723108 9.355654 0.741860
148 1 1 19.092998 9.309231 0.668196
149 1 1 19.126819 9.012320 0.433461
150 1 1 19.437519 8.804087 0.366341
151 1 1 19.715132 8.914950 0.131735
152 1 1 19.966017 9.102718 0.346677
153 1 1 20.317530 8.958823 0.358205
154 1 1 20.527248 8.683103 0.514401
155 1 1 20.784525 8.489691 0.716392
156 1 1 20.920448 8.140140 0.777538
157 1 1 21.060262 7.805129 0.665200
158 1 1 21.325568 7.868522 0.400637
159 1 1 21.175504 8.073916 0.118335
160 1 1 21.449377 8.091094 35.041364
161 1 1 21.165600 8.340729 35.001962
162 1 1 21.131732 8.522639 34.670056
163 1 1 20.853458 8.357312 34.470981
164 1 1 20.575312 8.120848 34.576430
165 1 1 20.445901 7.763573 34.579076
166 1 1 20.249858 7.592238 34.855864
167 1 1 19.939208 7.644697 35.068337
168 1 1 19.661608 7.794253 0.094507
169 1 1 19.981301 7.981056 0.009060
170 1 1 20.153981 8.297727 35.075367
171 1 1 20.091497 8.668913 35.023242
172 1 1 20.434632 8.823190 34.969793
173 1 1 20.627708 9.131838 35.078688
174 1 1 20.765170 9.358725 34.806610
175 1 1 20.845829 9.722015 34.729704
176 1 1 20.975382 10.079020 34.742496
177 1 1 21.094720 10.375196 34.948499
178 1 1 21.432119 10.549944 34.943463
179 1 1 21.684138 10.293329 34.820844
180 1 1 22.006498 10.216578 34.634852
181 1 1 22.340735 10.036944 34.655272
182 1 1 22.705874 10.006760 34.554462
183 1 1 22.948513 10.276482 34.667494
184 1 1 23.303239 10.311729 34.799126
185 1 1 23.567247 10.211781 35.053509
186 1 1 23.320668 10.114372 0.139846
187 1 1 23.482784 10.453560 0.084440
188 1 1 23.522032 10.820047 35.177883
189 1 1 23.824679 10.952122 0.180033
190 1 1 24.015488 10.740706 0.431619
191 1 1 24.274865 10.818024 0.698350
192 1 1 24.574510 10.964328 0.880580
193 1 1 24.845888 10.772230 1.064570
194 1 1 25.113921 10.872793 1.314461
195 1 1 25.224232 10.631963 1.586917
196 1 1 25.536610 10.533618 1.779656
197 1 1 25.838613 10.620692 1.993227
198 1 1 26.032076 10.938002 1.913943
199 1 1 26.026840 11.215553 2.173439
200 1 1 26.106383 11.422584 2.482002
201 1 1 26.282921 11.701002 2.670994
202 1 1 26.284908 11.818313 3.032428
203 1 1 26.630888 11.962854 3.094117
204 1 1 26.974679 11.822526 3.174835
205 1 1 27.085125 11.475001 3.281736
206 1 1 27.304369 11.205276 3.435296
207 1 1 27.625681 11.306617 3.611047
208 1 1 27.688962 11.052947 3.886813
209 1 1 27.545325 10.701336 3.898567
210 1 1 27.541119 10.426428 3.636254
211 1 1 27.378678 10.098255 3.534689
212 1 1 27.246200 9.763829 3.412178
213 1 1 27.226922 9.445159 3.206077
214 1 1 27.044961 9.126914 3.106028
215 1 1 27.061295 8.845987 3.361397
216 1 1 26.920924 8.566341 3.577022
217 1 1 26.903556 8.213400 3.437266
218 1 1 27.247802 8.064641 3.498626
219 1 1 27.523473 7.918856 3.715772
220 1 1 27.750812 7.957824 4.017763
221 1 1 27.903463 8.178172 4.287104
222 1 1 28.097599 8.301841 4.589456
223 1 1 28.361477 8.575254 4.585794
224 1 1 28.546781 8.817950 4.359606
225 1 1 28.616835 9.180942 4.271689
226 1 1 28.449334 9.255984 3.938955
227 1 1 28.523013 9.077444 3.611702
228 1 1 28.390803 8.755319 3.459530
229 1 1 28.559411 8.428778 3.362877
230 1 1 28.396616 8.227731 3.084528
231 1 1 28.047717 8.135721 3.203707
232 1 1 27.688548 8.183937 3.089372
233 1 1 27.560171 8.457411 2.858870
234 1 1 27.310845 8.708701 2.720703
235 1 1 26.973579 8.533904 2.730599
236 1 1 26.659397 8.740512 2.785392
237 1 1 26.563688 9.011489 2.536772
238 1 1 26.810961 9.050784 2.250919
239 1 1 26.872739 9.325169 1.995388
240 1 1 27.087885 9.446515 1.706618
241 1 1 27.039670 9.515474 1.336051
242 1 1 26.745420 9.362735 1.150343
243 1 1 26.432850 9.160325 1.226041
244 1 1 26.140960 8.953368 1.098099
245 1 1 25.868494 8.935490 0.833821
246 1 1 25.614352 9.213224 0.782093
247 1 1 25.647921 9.585725 0.849292
248 1 1 25.495999 9.931146 0.894062
249 1 1 25.510350 10.151202 1.203528
250 1 1 25.749358 10.000023 1.457339
251 1 1 26.105172 9.921680 1.349362
252 1 1 26.369120 10.160364 1.216090
253 1 1 26.701384 10.116161 1.037073
254 1 1 26.689367 9.859540 0.757071
255 1 1 26.893961 9.610583 0.555672
256 1 1 27.188060 9.397439 0.667366
257 1 1 27.531094 9.486308 0.530144
258 1 1 27.737294 9.748502 0.348112
259 1 1 27.891510 9.986702 0.095370
260 1 1 28.250924 10.034617 0.209061
261 1 1 28.452778 9.718474 0.148164
262 1 1 28.449158 9.368102 0.295223
263 1 1 28.568309 9.081723 0.514746
264 1 1 28.454434 9.079238 0.877274
265 1 1 28.582306 9.221408 1.205658
266 1 1 28.758805 8.948191 1.402128
267 1 1 28.640515 8.594821 1.476540
268 1 1 28.870271 8.435101 1.733642
269 1 1 28.880339 8.426721 2.113417
270 1 1 28.629701 8.309012 2.373657
271 1 1 28.282580 8.308520 2.219040
272 1 1 28.129906 8.084823 1.952487
273 1 1 28.022357 7.772586 1.764494
274 1 1 28.256028 7.599908 1.519585
275 1 1 28.333964 7.766921 1.187271
276 1 1 28.603073 7.754909 0.919248
277 1 1 28.711797 7.913109 0.591297
278 1 1 28.603953 8.143527 0.309025
279 1 1 28.484648 8.380064 0.036598
280 1 1 28.571561 8.674790 34.998925
281 1 1 28.319170 8.415254 34.883427
282 1 1 28.120241 8.449464 34.561470
283 1 1 28.005097 8.674377 34.277646
284 1 1 27.939410 8.582285 33.914873
285 1 1 27.767360 8.597848 33.576411
286 1 1 27.472542 8.491177 33.361692
287 1 1 27.229179 8.640989 33.111232
288 1 1 26.940546 8.886666 33.084132
289 1 1 26.598270 8.732610 33.024857
290 1 1 26.312379 8.495165 32.945569
291 1 1 25.933232 8.514211 32.962441
292 1 1 25.690015 8.252469 33.091814
293 1 1 25.660839 8.252198 33.470693
294 1 1 25.435963 8.005675 33.652509
295 1 1 25.091934 7.982507 33.492800
296 1 1 24.931464 8.286840 33.331460
297 1 1 24.788534 8.586260 33.146206
298 1 1 24.437180 8.575662 33.001850
299 1 1 24.486823 8.596235 32.625669
300 1 1 24.664873 8.769435 32.338093
301 1 1 24.956456 8.678665 32.111952
302 1 1 24.902402 8.334238 31.960795
303 1 1 25.151405 8.058243 31.881901
304 1 1 25.023522 7.700774 31.898081
305 1 1 25.027615 7.320914 31.888601
306 1 1 24.808677 7.032027 31.774537
307 1 1 24.566115 6.775889 31.633268
308 1 1 24.278601 6.534885 31.572831
309 1 1 24.343690 6.241331 31.805187
310 1 1 24.205110 6.115041 32.135712
311 1 1 23.879294 5.938862 32.220595
312 1 1 23.530182 6.036883 32.334228
313 1 1 23.185743 5.876404 32.337117
314 1 1 22.986078 5.800850 32.651482
315 1 1 23.056332 5.593026 32.961762
316 1 1 23.345008 5.662104 33.199027
317 1 1 23.713418 5.572316 33.174283
318 1 1 23.849441 5.699598 32.843077
319 1 1 24.194772 5.834082 32.759049
320 1 1 24.557729 5.943622 32.733293
321 1 1 24.763750 6.201530 32.921545
322 1 1 24.876942 6.491197 32.703186
323 1 1 25.120556 6.557577 32.419204
324 1 1 25.491355 6.541756 32.337609
325 1 1 25.685307 6.264534 32.510614
326 1 1 25.750579 6.015508 32.790124
327 1 1 25.548431 6.032592 33.111441
328 1 1 25.669612 5.849273 33.421456
329 1 1 26.000918 5.664787 33.396941
330 1 1 26.217238 5.505469 33.128197
331 1 1 26.163430 5.557927 32.755702
332 1 1 26.446279 5.452357 32.524940
333 1 1 26.814295 5.368193 32.568304
334 1 1 27.068818 5.093872 32.634380
335 1 1 27.317816 4.817054 32.558406
336 1 1 27.530043 4.516419 32.463652
337 1 1 27.614252 4.148689 32.509302
338 1 1 27.574669 3.797608 32.369392
339 1 1 27.409322 3.516342 32.174585
340 1 1 27.326354 3.159294 32.274750
341 1 1 27.460926 3.103263 32.625679
342 1 1 27.823294 2.989998 32.641818
343 1 1 28.032818 2.673003 32.645481
344 1 1 28.178528 2.328445 32.578785
345 1 1 28.539270 2.210458 32.560225
346 1 1 28.640555 1.844212 32.562505
347 1 1 28.502375 1.490570 32.578110
348 1 1 28.670030 1.149859 32.592532
349 1 1 28.666831 0.792762 32.462642
350 1 1 28.774483 0.437629 32.380843
351 1 1 28.913719 0.192076 32.635238
352 1 1 29.084639 0.296467 32.958176
353 1 1 28.920654 35.162117 32.835896
354 1 1 28.933013 34.793331 32.745102
355 1 1 28.952302 34.556943 32.448203
356 1 1 28.909053 34.477416 32.079144
357 1 1 28.624146 34.362288 31.855596
358 1 1 28.447975 34.143021 31.600086
359 1 1 28.335526 33.826413 31.422561
360 1 1 28.270382 33.452098 31.415913
361 1 1 27.918253 33.375765 31.295171
362 1 1 27.554992 33.312388 31.386955
363 1 1 27.303018 33.079309 31.550000
364 1 1 27.314807 32.699495 31.551466
365 1 1 27.384236 32.568953 31.901521
366 1 1 27.668005 32.408145 32.096498
367 1 1 27.780473 32.057514 32.002642
368 1 1 27.654557 31.799072 32.251143
369 1 1 27.420769 31.517787 32.148082
370 1 1 27.069793 31.372725 32.161226
371 1 1 26.958641 31.111359 32.413680
372 1 1 26.586826 31.164826 32.471084
373 1 1 26.207769 31.179251 32.493610
374 1 1 26.052270 31.392452 32.767042
375 1 1 25.860810 31.274699 33.073436
376 1 1 25.512576 31.129851 33.119825
377 1 1 25.136520 31.163099 33.163149
378 1 1 24.943200 31.418047 33.368159
379 1 1 24.598518 31.482936 33.514392
380 1 1 24.600877 31.357084 33.872938
381 1 1 24.715528 31.232655 34.213192
382 1 1 25.072847 31.335958 34.290984
383 1 1 25.424865 31.355736 34.432730
384 1 1 25.469361 31.427932 34.803146
385 1 1 25.402539 31.175996 35.079665
386 1 1 25.242372 31.202751 0.237327
387 1 1 25.461088 30.922651 0.102764
388 1 1 25.836775 30.979711 0.104530
389 1 1 26.086380 30.888657 35.018751
390 1 1 26.463497 30.930001 35.040513
391 1 1 26.649521 30.755998 0.136608
392 1 1 26.431307 30.445688 0.158761
393 1 1 26.360721 30.315596 34.994664
394 1 1 26.726743 30.218785 34.962180
395 1 1 26.951054 29.949104 35.108322
396 1 1 27.287013 29.784383 35.174639
397 1 1 27.593154 29.695422 34.967845
398 1 1 27.822768 29.997865 34.982193
399 1 1 27.629393 30.284322 34.824242
400 1 1 27.301549 30.475176 34.802045
401 1 1 27.095311 30.785494 34.727423
402 1 1 27.003778 31.086510 34.514324
403 1 1 26.691762 31.302233 34.536900
404 1 1 26.314782 31.349147 34.527668
405 1 1 26.005932 31.193380 34.370352
406 1 1 25.920070 31.186709 34.000240
407 1 1 25.582746 31.236423 33.832487
408 1 1 25.380964 30.950252 33.684871
409 1 1 25.248490 30.626467 33.536500
410 1 1 24.909563 30.463985 33.480571
411 1 1 24.626212 30.438265 33.732465
412 1 1 24.419432 30.525332 34.039159
413 1 1 24.052689 30.470934 33.955854
414 1 1 23.731324 30.280023 34.024248
415 1 1 23.676890 29.905370 34.056999
416 1 1 23.326463 29.840505 33.925114
417 1 1 23.039334 29.824752 33.676702
418 1 1 22.747906 29.728298 33.452723
419 1 1 22.435869 29.674635 33.242597
420 1 1 22.399624 29.724767 32.867666
421 1 1 22.592409 29.879992 32.579327
422 1 1 22.390353 29.997386 32.279674
423 1 1 22.147741 30.289330 32.262142
424 1 1 21.806837 30.262611 32.427884
425 1 1 21.456382 30.404086 32.467464
426 1 1 21.358169 30.326486 32.826257
427 1 1 21.218541 30.472043 33.148308
428 1 1 20.847393 30.525494 33.209888
429 1 1 20.627547 30.345763 32.957371
430 1 1 20.257509 30.312424 33.037120
431 1 1 19.975679 30.129107 33.214227
432 1 1 19.633615 30.146648 33.049651
433 1 1 19.423711 29.851865 32.933707
434 1 1 19.269098 29.568985 33.134889
435 1 1 18.890044 29.558775 33.110112
436 1 1 18.588189 29.370129 33.243138
437 1 1 18.295900 29.563950 33.389428
438 1 1 18.253789 29.606499 33.764682
439 1 1 18.437211 29.611178 34.097450
440 1 1 18.514201 29.597045 34.469301
441 1 1 18.459939 29.348654 34.751715
442 1 1 18.397673 29.354280 35.126536
443 1 1 18.151603 29.616781 0.062881
444 1 1 18.363419 29.750477 0.348642
445 1 1 18.593773 29.477736 0.478831
446 1 1 18.956382 29.579225 0.529966
447 1 1 19.329516 29.634574 0.484056
448 1 1 19.391211 29.862036 0.185970
449 1 1 19.647616 30.115266 0.065429
450 1 1 19.513406 30.099716 34.896154
451 1 1 11.508738 12.422958 25.672499
452 1 1 11.704100 12.583181 25.388665
453 1 1 11.742190 12.431844 25.042188
454 1 1 11.878217 12.686017 24.794615
455 1 1 11.980007 12.993406 24.595740
456 1 1 11.841915 13.334309 24.500265
457 1 1 11.495047 13.363667 24.652647
458 1 1 11.289597 13.679051 24.704830
459 1 1 11.120711 13.891927 24.970464
460 1 1 11.244221 14.147560 25.223044
461 1 1 11.241373 14.086618 25.598115
462 1 1 11.246670 13.830891 25.879141
463 1 1 11.495948 13.544429 25.864999
464 1 1 11.861839 13.496917 25.774080
465 1 1 12.126790 13.714042 25.609587
466 1 1 12.238960 13.691481 25.247221
467 1 1 12.024182 13.887317 25.002438
468 1 1 12.184701 13.980440 24.670833
469 1 1 11.914319 13.979352 24.403826
470 1 1 11.710652 14.299454 24.425137
471 1 1 11.415130 14.427145 24.223242
472 1 1 11.244309 14.766072 24.204560
473 1 1 10.959628 14.837725 24.445853
474 1 1 10.663678 14.671124 24.616318
475 1 1 10.487955 14.603915 24.946476
476 1 1 10.740776 14.570925 25.228244
477 1 1 10.729985 14.585087 25.607826
478 1 1 10.779557 14.927207 25.765613
479 1 1 10.765524 15.255744 25.575174
480 1 1 10.643566 15.606223 25.656974
481 1 1 10.357227 15.856012 25.660927
482 1 1 10.166110 15.981093 25.964618
483 1 1 10.192263 15.968639 26.343513
484 1 1 9.951349 15.721897 26.503135
485 1 1 9.963763 15.779481 26.878541
486 1 1 9.638154 15.916133 27.018914
487 1 1 9.367782 16.003047 26.766436
488 1 1 9.140223 15.896702 26.481291
489 1 1 8.875690 15.651664 26.361377
490 1 1 8.744618 15.450225 26.067027
491 1 1 8.812792 15.558971 25.709359
492 1 1 8.726854 15.733309 25.382830
493 1 1 9.018670 15.793191 25.146911
494 1 1 9.365502 15.656121 25.073975
495 1 1 9.600841 15.917366 24.929870
496 1 1 9.843053 15.722495 24.711334
497 1 1 9.847605 15.573331 24.361864
498 1 1 9.956840 15.396211 24.043908
499 1 1 10.257185 15.249851 23.862878
500 1 1 10.512138 15.069688 24.079535
501 1 1 10.519249 15.254537 24.411469
502 1 1 10.586317 15.587207 24.582444
503 1 1 10.937735 15.638273 24.717712
504 1 1 10.988414 15.722852 25.084697
505 1 1 11.273551 15.597186 25.302195
506 1 1 11.362006 15.238591 25.212834
507 1 1 11.627393 14.966898 25.225178
508 1 1 11.943850 14.818583 25.374370
509 1 1 11.837106 14.482695 25.516443
510 1 1 11.906396 14.253347 25.811398
511 1 1 11.966730 14.410474 26.152089
512 1 1 12.309714 14.557575 26.223668
513 1 1 12.607206 14.335039 26.143819
514 1 1 12.756344 14.169480 26.451631
515 1 1 13.051983 13.968871 26.581065
516 1 1 12.993902 13.600155 26.652305
517 1 1 12.825959 13.360973 26.409432
518 1 1 13.044293 13.230378 26.127165
519 1 1 13.331068 12.985904 26.176080
520 1 1 13.460663 12.833177 26.499004
521 1 1 13.434008 12.459210 26.560962
522 1 1 13.726851 12.261022 26.700119
523 1 1 14.040592 12.104188 26.553935
524 1 1 14.148113 11.790386 26.739321
525 1 1 14.456931 11.699155 26.941085
526 1 1 14.565519 11.613401 27.294999
527 1 1 14.654540 11.263838 27.414499
528 1 1 15.022938 11.172562 27.433260
529 1 1 15.127777 11.157352 27.798195
530 1 1 15.424093 11.033385 28.001245
531 1 1 15.604814 10.821987 28.260186
532 1 1 15.883226 10.589935 28.146001
533 1 1 16.240496 10.649599 28.031116
534 1 1 16.531937 10.816082 27.852945
535 1 1 16.493420 11.152468 27.680430
536 1 1 16.590632 11.473197 27.859545
537 1 1 16.317597 11.710453 27.976000
538 1 1 16.087797 11.952489 28.157688
539 1 1 16.088319 12.304460 28.300924
540 1 1 16.409517 12.506755 28.283366
541 1 1 16.778899 12.576817 28.228152
542 1 1 16.957838 12.244061 28.268829
543 1 1 17.083719 11.889543 28.215249
544 1 1 17.231488 11.655327 28.475456
545 1 1 17.429129 11.467655 28.740252
546 1 1 17.321820 11.451619 29.104433
547 1 1 17.371424 11.702130 29.385829
548 1 1 17.618640 11.980784 29.310752
549 1 1 17.988319 11.915665 29.251619
550 1 1 18.248742 11.658113 29.352846
551 1 1 18.600951 11.800759 29.352191
552 1 1 18.639591 12.104874 29.576739
553 1 1 18.386192 12.335368 29.741242
554 1 1 18.434858 12.708171 29.796465
555 1 1 18.645788 13.005867 29.902699
556 1 1 18.815192 13.043572 30.240754
557 1 1 19.102597 12.795041 30.235277
558 1 1 19.461222 12.811696 30.110735
559 1 1 19.654371 12.500461 30.211860
560 1 1 19.997044 12.531845 30.050647
561 1 1 20.335482 12.693060 29.988438
562 1 1 20.438057 12.947379 29.725380
563 1 1 20.753508 12.888820 29.521760
564 1 1 20.841412 12.519899 29.497877
565 1 1 21.189482 12.369090 29.475425
566 1 1 21.162571 12.091397 29.217429
567 1 1 21.210452 11.949891 28.868025
568 1 1 21.201644 11.801946 28.518118
569 1 1 21.430112 11.581956 28.308818
570 1 1 21.584805 11.280439 28.480740
571 1 1 21.708439 11.222629 28.835385
572 1 1 21.855224 10.944678 29.048919
573 1 1 22.059681 10.632314 29.119818
574 1 1 22.249693 10.323148 29.232564
575 1 1 22.614784 10.305508 29.128651
576 1 1 22.847411 10.474385 28.880125
577 1 1 22.685184 10.491421 28.536916
578 1 1 22.370274 10.456940 28.327053
579 1 1 22.305221 10.086870 28.270336
580 1 1 22.128803 9.752320 28.233553
581 1 1 22.139447 9.609466 27.881588
582 1 1 22.214079 9.809025 27.566936
583 1 1 21.984561 10.103402 27.495778
584 1 1 22.142931 10.445362 27.446969
585 1 1 22.078833 10.814044 27.513036
586 1 1 21.925917 11.092632 27.721377
587 1 1 21.655079 11.265272 27.518296
588 1 1 21.358156 11.455397 27.660034
589 1 1 21.084415 11.718859 27.667335
590 1 1 21.035776 12.066505 27.812856
591 1 1 21.110042 12.407440 27.662363
592 1 1 21.288467 12.521978 27.347013
593 1 1 21.446723 12.865709 27.312314
594 1 1 21.558783 13.198197 27.166389
595 1 1 21.530158 13.561800 27.059741
596 1 1 21.451277 13.658761 26.700886
597 1 1 21.739392 13.726986 26.462694
598 1 1 21.973867 13.682296 26.167019
599 1 1 22.303854 13.493870 26.169154
600 1 1 22.542072 13.532590 25.875635
601 1 1 22.334481 13.695611 25.602267
602 1 1 22.562928 13.957700 25.448901
603 1 1 22.869195 14.101885 25.276241
604 1 1 23.145354 13.919837 25.089172
605 1 1 23.286170 13.986279 24.742536
606 1 1 23.121499 13.723869 24.522480
607 1 1 23.322649 13.524402 24.269199
608 1 1 23.178492 13.511113 23.917855
609 1 1 23.137164 13.705398 23.593903
610 1 1 23.105606 14.080539 23.645613
611 1 1 22.867680 14.241357 23.894468
612 1 1 22.892160 14.487976 24.182530
613 1 1 23.076101 14.812563 24.254707
614 1 1 23.028008 14.978495 24.593164
615 1 1 23.129590 14.858309 24.939049
616 1 1 23.383997 14.706576 25.177070
617 1 1 23.761967 14.722250 25.141104
618 1 1 23.933089 14.931896 24.874335
619 1 1 24.211522 15.057674 24.648382
620 1 1 24.209709 15.190151 24.292227
621 1 1 24.336705 15.061797 23.957866
622 1 1 24.499735 14.752224 23.809590
623 1 1 24.830894 14.571080 23.765769
624 1 1 24.904626 14.207087 23.846222
625 1 1 24.851336 13.842627 23.752791
626 1 1 24.818171 13.476605 23.849371
627 1 1 24.997211 13.209922 24.052409
628 1 1 24.902581 13.015044 24.364608
629 1 1 24.801426 12.649418 24.386640
630 1 1 24.956093 12.479416 24.084023
631 1 1 25.082113 12.140062 23.968447
632 1 1 25.307350 11.869790 23.824846
633 1 1 25.358670 11.872990 23.448341
634 1 1 25.182991 11.712913 23.151841
635 1 1 24.989299 11.789659 22.834047
636 1 1 25.081593 12.109897 22.651483
637 1 1 24.852092 12.411489 22.623709
638 1 1 24.490581 12.502519 22.697354
639 1 1 24.181917 12.288539 22.755139
640 1 1 23.950211 12.351246 22.460555
641 1 1 23.881360 12.221210 22.110198
642 1 1 24.213622 12.136645 21.946337
643 1 1 24.528532 12.325707 21.848934
644 1 1 24.894802 12.245818 21.786772
645 1 1 25.160199 12.517539 21.798257
646 1 1 25.170249 12.748944 22.099506
647 1 1 25.007377 13.091786 22.117718
648 1 1 25.103768 13.446056 22.215707
649 1 1 25.243286 13.607845 21.901448
650 1 1 25.046560 13.924389 21.827293
651 1 1 25.143239 14.232038 21.626283
652 1 1 25.275976 14.585238 21.581218
653 1 1 25.576810 14.817172 21.570965
654 1 1 25.939231 14.836979 21.458453
655 1 1 26.175256 14.697883 21.195119
656 1 1 26.179762 14.685097 20.815361
657 1 1 25.831701 14.697770 20.663398
658 1 1 25.553678 14.598536 20.902680
659 1 1 25.183231 14.622271 20.983952
660 1 1 24.955780 14.885534 21.136788
661 1 1 24.669859 15.124016 21.060789
662 1 1 24.713918 15.466936 20.903103
663 1 1 24.983354 15.701799 21.032112
664 1 1 25.260712 15.739434 21.289125
665 1 1 25.351839 16.031195 21.514894
666 1 1 25.284853 16.289794 21.785152
667 1 1 25.265267 16.101504 22.114642
668 1 1 25.226789 15.998101 22.478272
669 1 1 25.121197 15.671846 22.642004
670 1 1 24.761511 15.598372 22.740122
671 1 1 24.444188 15.432929 22.867931
672 1 1 24.481527 15.360738 23.239138
673 1 1 24.665247 15.441114 23.561917
674 1 1 24.964152 15.645740 23.676738
675 1 1 25.270306 15.862489 23.615993
676 1 1 25.339512 16.208936 23.755938
677 1 1 25.420425 16.580200 23.751880
678 1 1 25.369023 16.943049 23.852368
679 1 1 25.138022 17.088313 24.116824
680 1 1 24.934260 16.858529 24.340611
681 1 1 24.616950 16.664996 24.419727
682 1 1 24.318667 16.763269 24.633666
683 1 1 24.237095 16.511591 24.906437
684 1 1 24.442991 16.422550 25.213159
685 1 1 24.733306 16.204811 25.325885
686 1 1 25.062430 16.171054 25.138969
687 1 1 25.057755 16.362211 24.810584
688 1 1 25.348918 16.417224 24.572680
689 1 1 25.678816 16.289079 24.434311
690 1 1 25.997371 16.300439 24.227445
691 1 1 26.132411 16.561162 23.986224
692 1 1 26.509913 16.602656 23.999280
693 1 1 26.757529 16.637731 24.285385
694 1 1 26.814116 16.952066 24.491278
695 1 1 26.918692 17.294157 24.619487
696 1 1 26.635262 17.399769 24.849516
697 1 1 26.308297 17.458594 25.033997
698 1 1 26.291243 17.813225 25.169445
699 1 1 26.404230 18.034665 24.882045
700 1 1 26.780228 18.066316 24.927031
701 1 1 27.045248 18.043071 24.655694
702 1 1 27.407590 17.959895 24.577015
703 1 1 27.590926 18.292281 24.559474
704 1 1 27.821882 18.591681 24.597143
705 1 1 27.786215 18.968172 24.559966
706 1 1 27.832825 19.245996 24.814998
707 1 1 27.651003 19.145053 25.133040
708 1 1 27.695783 18.776893 25.215824
709 1 1 27.491994 18.463774 25.146350
710 1 1 27.473739 18.233008 25.447703
711 1 1 27.584264 18.363897 25.786897
712 1 1 27.528309 18.712208 25.928136
713 1 1 27.295320 18.896782 26.164882
714 1 1 27.026081 18.690332 26.336021
715 1 1 27.143070 18.364058 26.491774
716 1 1 26.902908 18.069896 26.505615
717 1 1 26.621283 17.848796 26.632901
718 1 1 26.434203 17.518365 26.647628
719 1 1 26.516590 17.239237 26.891964
720 1 1 26.503225 17.044408 27.217944
721 1 1 26.198226 17.116209 27.432932
722 1 1 26.167692 16.926710 27.760892
723 1 1 26.190215 16.550249 27.714313
724 1 1 26.488600 16.394011 27.890255
725 1 1 26.731160 16.103081 27.859846
726 1 1 27.067076 16.198950 27.710281
727 1 1 27.336393 16.343564 27.936012
728 1 1 27.537448 16.641025 28.060488
729 1 1 27.749864 16.932774 27.941485
730 1 1 28.091519 16.970093 27.779376
731 1 1 28.464379 17.040055 27.801297
732 1 1 28.736227 17.284406 27.697418
733 1 1 28.668745 17.578015 27.465815
734 1 1 28.400879 17.792387 27.302436
735 1 1 28.036507 17.811342 27.196258
736 1 1 27.981761 17.567254 26.910209
737 1 1 27.883376 17.217416 27.021266
738 1 1 27.639770 16.943242 27.120689
739 1 1 27.341020 16.949989 27.355429
740 1 1 27.196130 17.044938 27.693648
741 1 1 26.827783 16.956850 27.724652
742 1 1 26.723733 17.043511 28.079706
743 1 1 26.976823 17.134529 28.348149
744 1 1 26.915418 17.152256 28.722736
745 1 1 26.755403 16.837215 28.862538
746 1 1 26.750287 16.584676 28.578640
747 1 1 26.788924 16.227184 28.455733
748 1 1 26.537122 15.945521 28.414967
749 1 1 26.180558 16.076752 28.408637
750 1 1 25.807515 16.149101 28.410894
751 1 1 25.621594 15.956066 28.141504
752 1 1 25.558247 16.019219 27.772182
753 1 1 25.370929 15.921901 27.456205
754 1 1 25.620792 15.743023 27.232663
755 1 1 25.598242 15.364732 27.204598
756 1 1 25.816738 15.241804 26.919032
757 1 1 25.947385 15.042086 26.623322
758 1 1 26.323340 15.021318 26.674570
759 1 1 26.586334 14.811946 26.497376
760 1 1 26.879199 14.800600 26.255505
761 1 1 27.244844 14.722627 26.323506
762 1 1 27.406120 14.402477 26.197434
763 1 1 27.225895 14.085697 26.089872
764 1 1 27.293568 14.019924 25.721777
765 1 1 27.350567 14.147563 25.368423
766 1 1 27.552429 14.438029 25.229566
767 1 1 27.354679 14.704740 25.044741
768 1 1 27.184083 14.826091 24.727612
769 1 1 26.849488 14.664647 24.647725
770 1 1 26.931523 14.401527 24.386118
771 1 1 27.143365 14.088847 24.344236
772 1 1 27.450165 13.993778 24.547302
773 1 1 27.781807 13.837486 24.447371
774 1 1 28.031877 13.837566 24.733491
775 1 1 28.397479 13.873863 24.830537
776 1 1 28.707945 13.968055 25.028372
777 1 1 29.010615 13.752108 25.106844
778 1 1 29.148054 13.397849 25.110206
779 1 1 29.492474 13.374973 24.951297
780 1 1 29.600109 13.013686 24.903484
781 1 1 29.391095 12.710113 24.995984
782 1 1 29.203003 12.696921 25.325904
783 1 1 29.012222 12.737240 25.652059
784 1 1 28.781882 12.985957 25.823766
785 1 1 28.480211 13.009880 25.593935
786 1 1 28.241637 13.295147 25.515803
787 1 1 28.329452 13.654512 25.428938
788 1 1 28.439100 13.938554 25.656308
789 1 1 28.399227 13.827830 26.017625
790 1 1 28.325717 13.729917 26.377360
791 1 1 28.025276 13.497417 26.368489
792 1 1 27.965829 13.325445 26.702093
793 1 1 27.624701 13.286673 26.864969
794 1 1 27.366880 13.185194 27.125027
795 1 1 27.345909 13.464892 27.381403
796 1 1 27.077748 13.647162 27.579564
797 1 1 27.065190 13.780643 27.935127