LAMMPS data file for polymer system

22500 atoms
22450 bonds

1 atom types
1 bond types

0.0 31.04385442133693 xlo xhi
0.0 31.04385442133693 ylo yhi
0.0 31.04385442133693 zlo zhi

Masses

1 5.65487

Atoms

1 1 1 25.467270 29.050828 2.397551
2 1 1 25.553174 28.692602 2.490796
3 1 1 25.883125 28.565501 2.629999
4 1 1 26.238262 28.610076 2.757635
5 1 1 26.502634 28.340714 2.801811
6 1 1 26.447518 28.053410 2.559287
7 1 1 26.188819 27.790384 2.650351
8 1 1 26.032456 27.577117 2.377463
9 1 1 25.879677 27.360584 2.105118
10 1 1 25.710037 27.278874 1.775049
11 1 1 25.750201 27.024018 1.496059
12 1 1 25.453223 26.889482 1.300856
13 1 1 25.105871 26.735386 1.301974
14 1 1 24.871851 26.958693 1.102555
15 1 1 24.672672 27.275429 1.036172
16 1 1 24.604434 27.543929 1.296271
17 1 1 24.860776 27.516281 1.575420
18 1 1 24.746638 27.358976 1.901959
19 1 1 24.858728 27.367735 2.264945
20 1 1 25.116790 27.254473 2.519848
21 1 1 25.280578 27.005833 2.755966
22 1 1 25.103534 26.670217 2.735540
23 1 1 25.177851 26.320040 2.863027
24 1 1 24.916293 26.173375 3.096429
25 1 1 24.709833 25.947717 3.321934
26 1 1 24.928400 25.663208 3.447166
27 1 1 24.834259 25.304919 3.531819
28 1 1 24.870569 24.936473 3.446207
29 1 1 24.797930 24.896294 3.075384
30 1 1 24.564418 25.180612 2.980329
31 1 1 24.210909 25.164733 2.841841
32 1 1 23.948895 25.308348 2.607057
33 1 1 23.594410 25.253580 2.481595
34 1 1 23.283696 25.445878 2.585892
35 1 1 22.983241 25.218880 2.534911
36 1 1 22.664791 25.292187 2.728857
37 1 1 22.591957 25.662441 2.773662
38 1 1 22.281315 25.742612 2.977313
39 1 1 22.092644 25.588020 3.268697
40 1 1 21.875985 25.339011 3.456988
41 1 1 21.793923 25.029236 3.661206
42 1 1 21.543069 24.758142 3.571875
43 1 1 21.217793 24.645023 3.411252
44 1 1 20.969353 24.363835 3.351160
45 1 1 20.605951 24.409215 3.249771
46 1 1 20.366744 24.262290 2.993660
47 1 1 20.265512 23.943631 2.813081
48 1 1 20.469596 23.661317 2.964898
49 1 1 20.650704 23.345195 3.072909
50 1 1 20.819188 23.431224 3.402473
51 1 1 21.146216 23.265408 3.502261
52 1 1 21.184776 23.244264 3.879708
53 1 1 21.235953 23.455848 4.191177
54 1 1 21.094853 23.748709 4.387959
55 1 1 21.152522 24.059038 4.176368
56 1 1 21.068031 24.401997 4.316511
57 1 1 20.760802 24.523160 4.128548
58 1 1 20.850834 24.873028 4.010705
59 1 1 20.932659 25.243670 4.028843
60 1 1 20.803223 25.417999 4.340702
61 1 1 20.489695 25.451949 4.552710
62 1 1 20.224321 25.610999 4.332076
63 1 1 20.019726 25.862531 4.133903
64 1 1 19.728015 25.698705 3.953721
65 1 1 19.825831 25.545084 3.620205
66 1 1 20.098160 25.722448 3.423280
67 1 1 20.049444 25.755625 3.047879
68 1 1 19.924333 25.635051 2.709931
69 1 1 19.584200 25.725956 2.566941
70 1 1 19.574414 26.102662 2.517983
71 1 1 19.756265 26.419142 2.412293
72 1 1 19.882519 26.767662 2.328662
73 1 1 19.580657 26.998470 2.326168
74 1 1 19.274366 27.216559 2.271179
75 1 1 19.081920 27.465176 2.057745
76 1 1 19.272234 27.612583 1.763718
77 1 1 19.001324 27.741286 1.530387
78 1 1 19.014678 28.115653 1.466580
79 1 1 18.710904 28.309756 1.346390
80 1 1 18.525961 28.282915 1.015520
81 1 1 18.236412 28.065284 0.900637
82 1 1 18.093258 27.843514 0.627279
83 1 1 17.873831 27.533358 0.619860
84 1 1 17.525603 27.419179 0.720361
85 1 1 17.263682 27.417558 0.995669
86 1 1 17.187150 27.074156 1.139260
87 1 1 17.391164 26.972224 1.443215
88 1 1 17.355356 26.742548 1.743826
89 1 1 17.189604 26.706965 2.083914
90 1 1 17.370596 26.514929 2.357344
91 1 1 17.328007 26.662040 2.705115
92 1 1 17.586493 26.939647 2.727894
93 1 1 17.777642 27.182361 2.506642
94 1 1 17.977392 27.468141 2.657735
95 1 1 18.186548 27.774252 2.574370
96 1 1 18.446112 27.918319 2.337153
97 1 1 18.541419 28.139781 2.043434
98 1 1 18.239207 28.225621 1.829660
99 1 1 18.017509 28.481882 1.657670
100 1 1 17.864058 28.828878 1.678791
101 1 1 17.836035 29.140492 1.463125
102 1 1 17.760341 29.512180 1.485890
103 1 1 17.705352 29.611024 1.848665
104 1 1 18.038624 29.644002 2.028227
105 1 1 18.342359 29.865870 2.082263
106 1 1 18.672234 29.870274 2.270845
107 1 1 18.705810 29.856691 2.649115
108 1 1 18.917437 29.787272 2.957003
109 1 1 19.259078 29.953134 2.943918
110 1 1 19.359289 30.307575 2.850488
111 1 1 19.269521 30.666987 2.765844
112 1 1 19.037411 30.851976 2.528560
113 1 1 19.314916 0.063720 2.573953
114 1 1 18.993854 0.262031 2.529327
115 1 1 18.729247 0.436481 2.319683
116 1 1 18.496605 0.499591 2.025923
117 1 1 18.596891 0.820004 1.847939
118 1 1 18.511690 0.920631 1.491548
119 1 1 18.137250 0.983960 1.477966
120 1 1 17.783919 1.123806 1.477582
121 1 1 17.550593 0.832146 1.407630
122 1 1 17.441411 0.698140 1.746040
123 1 1 17.486927 0.334970 1.848197
124 1 1 17.335193 31.041160 1.762410
125 1 1 17.326897 31.026926 1.382767
126 1 1 16.999427 30.995150 1.192627
127 1 1 16.637603 30.935317 1.093109
128 1 1 16.405564 30.765506 1.341549
129 1 1 16.459567 30.631245 1.692914
130 1 1 16.646429 30.300367 1.691340
131 1 1 16.944690 30.148806 1.871532
132 1 1 17.253478 30.276073 2.052786
133 1 1 17.209226 30.606450 2.235249
134 1 1 16.996453 30.618550 2.549862
135 1 1 16.945229 30.821507 2.867012
136 1 1 17.215643 0.036549 2.932198
137 1 1 17.394787 0.339525 3.075423
138 1 1 17.710374 0.539278 3.145445
139 1 1 17.888525 0.602572 2.815814
140 1 1 17.741717 0.634025 2.466733
141 1 1 17.438926 0.860186 2.427122
142 1 1 17.147429 1.000195 2.626690
143 1 1 16.976445 1.254597 2.402093
144 1 1 16.666814 1.421161 2.546264
145 1 1 16.329094 1.255933 2.491083
146 1 1 16.170556 0.972944 2.293137
147 1 1 15.894952 0.957753 2.031963
148 1 1 15.627776 0.754817 1.853543
149 1 1 15.395151 0.512157 2.030748
150 1 1 15.523017 0.503438 2.388483
151 1 1 15.740823 0.324162 2.643083
152 1 1 15.606162 0.023973 2.833222
153 1 1 15.871698 30.817482 2.939134
154 1 1 16.105926 30.518398 2.929856
155 1 1 16.460634 30.481684 3.061137
156 1 1 16.536346 30.302775 3.387724
157 1 1 16.435101 30.499372 3.696753
158 1 1 16.531880 30.692194 4.009568
159 1 1 16.422020 30.521173 4.330633
160 1 1 16.192130 30.377830 4.597098
161 1 1 16.106812 30.079163 4.816002
162 1 1 16.227568 30.172832 5.163916
163 1 1 16.000301 30.215651 5.465439
164 1 1 15.688038 30.431185 5.486348
165 1 1 15.333379 30.450722 5.351311
166 1 1 14.962469 30.429987 5.431285
167 1 1 14.935654 30.450044 5.809806
168 1 1 14.741115 30.374221 6.127305
169 1 1 14.399593 30.232962 6.215670
170 1 1 14.291476 29.915207 6.393835
171 1 1 14.507204 29.642111 6.546413
172 1 1 14.425397 29.418094 6.842258
173 1 1 14.727875 29.207507 6.934779
174 1 1 14.993376 29.405430 7.121154
175 1 1 15.071597 29.716400 6.917245
176 1 1 15.436486 29.789176 6.840045
177 1 1 15.634974 30.061664 6.664680
178 1 1 15.836865 29.909295 6.381089
179 1 1 15.622356 29.675066 6.172469
180 1 1 15.637535 29.506290 5.832345
181 1 1 15.657651 29.227483 5.574931
182 1 1 15.858493 28.905229 5.589575
183 1 1 15.786876 28.681304 5.291030
184 1 1 15.555267 28.426103 5.130937
185 1 1 15.350088 28.207338 4.897607
186 1 1 14.976936 28.277378 4.913483
187 1 1 14.915284 28.570313 4.679415
188 1 1 14.538033 28.595545 4.641399
189 1 1 14.419902 28.365729 4.362777
190 1 1 14.211701 28.115582 4.166618
191 1 1 14.397796 27.985646 3.861847
192 1 1 14.560765 28.098134 3.537521
193 1 1 14.542908 27.941650 3.191697
194 1 1 14.631760 27.804965 2.848444
195 1 1 14.924858 27.927260 2.639787
196 1 1 15.023625 28.292738 2.607061
197 1 1 14.994554 28.608223 2.397242
198 1 1 14.909855 28.856285 2.122121
199 1 1 14.835768 29.222433 2.052505
200 1 1 14.892318 29.426816 2.367830
201 1 1 14.598537 29.524233 2.588291
202 1 1 14.557188 29.898616 2.638565
203 1 1 14.670150 29.963121 2.995606
204 1 1 14.827923 29.846833 3.321159
205 1 1 14.781522 29.493533 3.453167
206 1 1 14.562942 29.207767 3.330852
207 1 1 14.759572 28.967048 3.112241
208 1 1 14.530284 28.672403 3.041450
209 1 1 14.266531 28.619170 2.773120
210 1 1 13.956693 28.402245 2.736463
211 1 1 13.679812 28.468543 2.988141
212 1 1 13.326655 28.587887 2.914406
213 1 1 13.004208 28.582756 3.115408
214 1 1 12.701995 28.370388 3.204667
215 1 1 12.595482 28.299814 3.562541
216 1 1 12.225797 28.229345 3.615145
217 1 1 12.217010 27.918795 3.833963
218 1 1 12.268605 27.542349 3.828848
219 1 1 12.539109 27.368109 4.031007
220 1 1 12.851011 27.202806 3.890324
221 1 1 13.167636 27.224715 3.681353
222 1 1 13.529619 27.189597 3.791513
223 1 1 13.868634 27.021827 3.755154
224 1 1 14.148240 27.210349 3.930312
225 1 1 14.445105 27.000307 4.040554
226 1 1 14.713939 26.861750 3.810489
227 1 1 14.814808 26.495458 3.817947
228 1 1 14.647309 26.319818 4.110341
229 1 1 14.364884 26.085700 4.209463
230 1 1 14.090429 26.251822 4.413125
231 1 1 13.735245 26.319422 4.296189
232 1 1 13.368271 26.236301 4.349306
233 1 1 13.075809 26.005005 4.422575
234 1 1 12.743406 26.188068 4.402671
235 1 1 12.694194 26.455229 4.668384
236 1 1 12.704323 26.410731 5.045634
237 1 1 12.987006 26.586554 5.228874
238 1 1 13.306848 26.707873 5.394351
239 1 1 13.546779 26.787977 5.110772
240 1 1 13.370431 27.038268 4.885704
241 1 1 13.490178 27.397063 4.922131
242 1 1 13.810312 27.572034 4.815835
243 1 1 13.881137 27.634552 4.447765
244 1 1 13.550139 27.584416 4.267969
245 1 1 13.357802 27.912139 4.265943
246 1 1 13.236650 28.127896 3.977549
247 1 1 13.495054 28.394695 3.897264
248 1 1 13.510428 28.768747 3.832085
249 1 1 13.578128 29.099360 3.657407
250 1 1 13.488862 29.103529 3.288064
251 1 1 13.727919 29.298008 3.065735
252 1 1 13.572040 29.638912 3.003397
253 1 1 13.756280 29.967111 3.055754
254 1 1 13.915333 30.120831 3.364740
255 1 1 13.742578 30.160980 3.700811
256 1 1 13.568141 30.353586 3.978074
257 1 1 13.508183 30.553631 4.295544
258 1 1 13.726389 30.533889 4.606022
259 1 1 13.835161 30.842842 4.798679
260 1 1 14.077129 30.997596 5.047482
261 1 1 13.997016 0.090224 5.392959
262 1 1 13.876598 0.301561 5.684912
263 1 1 13.779534 30.986141 5.608098
264 1 1 13.477039 30.824412 5.771622
265 1 1 13.418280 30.892802 6.140770
266 1 1 13.609238 30.661658 6.374238
267 1 1 13.901143 30.552808 6.591822
268 1 1 14.234408 30.708368 6.687403
269 1 1 14.360821 0.017707 6.748018
270 1 1 14.258182 0.265392 7.017308
271 1 1 14.160379 0.525277 7.276720
272 1 1 14.270112 0.640992 7.621638
273 1 1 14.257727 0.650315 8.001322
274 1 1 14.163747 0.404479 8.275424
275 1 1 14.129736 0.109907 8.513060
276 1 1 14.476180 31.026586 8.603633
277 1 1 14.494813 31.023544 8.983163
278 1 1 14.673668 0.279669 9.132906
279 1 1 15.049471 0.224483 9.144161
280 1 1 15.300250 0.344934 9.403007
281 1 1 15.536000 0.050661 9.450185
282 1 1 15.254718 30.844392 9.398043
283 1 1 15.593778 30.748178 9.540104
284 1 1 15.844148 30.463452 9.565519
285 1 1 15.803199 30.326402 9.917571
286 1 1 15.626005 30.180172 10.220257
287 1 1 15.545189 30.353511 10.548620
288 1 1 15.651141 30.492305 10.886127
289 1 1 15.683566 30.457048 11.263096
290 1 1 15.477529 30.248860 11.505183
291 1 1 15.243995 30.459791 11.718186
292 1 1 15.072989 30.715323 11.494891
293 1 1 14.718967 30.811239 11.395551
294 1 1 14.603115 0.098995 11.250591
295 1 1 14.560512 0.392382 11.012876
296 1 1 14.733902 0.484858 10.687631
297 1 1 15.087108 0.544209 10.560657
298 1 1 15.456114 0.529508 10.650202
299 1 1 15.815679 0.490380 10.766743
300 1 1 16.122849 0.703404 10.835064
301 1 1 16.447469 0.512018 10.786145
302 1 1 16.697206 0.688623 11.011627
303 1 1 16.902224 0.643791 11.328420
304 1 1 16.840403 0.699249 11.699233
305 1 1 16.521909 0.647154 11.899850
306 1 1 16.219420 0.678714 11.672024
307 1 1 15.861481 0.659194 11.545934
308 1 1 15.642228 0.387252 11.396348
309 1 1 15.280546 0.320524 11.300779
310 1 1 15.078213 0.404147 11.611372
311 1 1 15.250951 0.633719 11.860085
312 1 1 15.184070 0.557465 12.226298
313 1 1 15.164412 0.198259 12.348712
314 1 1 15.248499 30.953111 12.116750
315 1 1 14.892554 31.041574 12.216138
316 1 1 14.551764 31.036833 12.048092
317 1 1 14.264220 0.180835 12.210661
318 1 1 14.007202 0.272823 12.475008
319 1 1 13.905713 0.173746 12.827547
320 1 1 13.896670 30.924422 12.585958
321 1 1 14.234951 30.751691 12.597327
322 1 1 14.263022 30.518543 12.298572
323 1 1 13.973033 30.323792 12.148977
324 1 1 13.817626 30.027516 11.968786
325 1 1 13.915386 29.720757 12.170633
326 1 1 14.073305 29.609478 12.497861
327 1 1 13.856672 29.512143 12.794502
328 1 1 13.768945 29.337015 13.120131
329 1 1 14.032135 29.153354 13.323602
330 1 1 14.287757 28.943780 13.136157
331 1 1 14.591074 28.878482 12.916760
332 1 1 14.568919 28.869498 12.537513
333 1 1 14.248641 29.024304 12.403881
334 1 1 14.040282 28.778044 12.203028
335 1 1 14.164635 28.420727 12.238542
336 1 1 14.318018 28.159388 12.467836
337 1 1 14.322349 27.791717 12.563748
338 1 1 14.593836 27.576850 12.407135
339 1 1 14.912793 27.781505 12.435120
340 1 1 14.944543 28.025939 12.145908
341 1 1 15.302909 28.029597 12.019573
342 1 1 15.585293 27.782148 11.961020
343 1 1 15.422062 27.495061 11.773040
344 1 1 15.125016 27.561223 11.545474
345 1 1 14.834138 27.324952 11.608453
346 1 1 14.480255 27.446525 11.674682
347 1 1 14.429913 27.811752 11.766742
348 1 1 14.389871 28.145952 11.590370
349 1 1 14.166583 28.302542 11.325753
350 1 1 14.139607 28.678876 11.370972
351 1 1 13.884072 28.958441 11.340232
352 1 1 13.857739 29.318740 11.222370
353 1 1 13.530296 29.506103 11.267938
354 1 1 13.249529 29.250245 11.278257
355 1 1 13.014118 29.221796 10.981319
356 1 1 12.829196 29.538164 10.880745
357 1 1 12.456800 29.613018 10.891624
358 1 1 12.172037 29.808747 10.733509
359 1 1 11.916976 30.074831 10.641081
360 1 1 11.713487 30.170090 10.947542
361 1 1 11.347343 30.070567 10.968359
362 1 1 11.075494 29.995992 11.223187
363 1 1 10.828234 29.757654 11.385843
364 1 1 10.589650 29.462811 11.362498
365 1 1 10.790257 29.140865 11.339959
366 1 1 11.070393 28.926972 11.197925
367 1 1 11.447795 28.927561 11.242277
368 1 1 11.681658 29.181074 11.401774
369 1 1 11.981683 29.276692 11.614476
370 1 1 12.291092 29.495919 11.639087
371 1 1 12.609829 29.461498 11.843102
372 1 1 12.568268 29.648106 12.171507
373 1 1 12.482379 29.575179 12.534419
374 1 1 12.336396 29.780196 12.819124
375 1 1 12.326893 29.887225 13.183616
376 1 1 12.271317 29.773217 13.541825
377 1 1 12.249900 30.090310 13.750136
378 1 1 12.413432 30.385379 13.575234
379 1 1 12.463258 30.536021 13.229945
380 1 1 12.743870 30.777976 13.145598
381 1 1 12.528665 0.023038 13.024708
382 1 1 12.353186 0.337619 13.145728
383 1 1 12.322296 0.697654 13.263291
384 1 1 12.150051 0.908942 13.528034
385 1 1 12.145552 1.251541 13.692369
386 1 1 12.085804 1.271235 14.067125
387 1 1 12.210791 1.486870 14.353970
388 1 1 12.183107 1.461861 14.732134
389 1 1 11.879507 1.443056 14.959892
390 1 1 11.770852 1.082651 15.011872
391 1 1 11.812433 0.708407 15.062981
392 1 1 11.851698 0.560938 14.714971
393 1 1 11.983386 0.481290 14.367531
394 1 1 12.332204 0.606585 14.283702
395 1 1 12.453021 0.786536 14.595825
396 1 1 12.790754 0.958379 14.624233
397 1 1 12.977143 1.263194 14.753641
398 1 1 13.061102 1.480208 14.453215
399 1 1 12.980120 1.850740 14.476621
400 1 1 12.653683 1.954531 14.312101
401 1 1 12.657990 2.299363 14.152501
402 1 1 12.991593 2.370688 13.985105
403 1 1 13.243183 2.566536 13.778352
404 1 1 13.610274 2.631968 13.851581
405 1 1 13.791581 2.417244 14.107358
406 1 1 13.697680 2.354509 14.470189
407 1 1 13.549091 2.598301 14.720962
408 1 1 13.197931 2.674665 14.597450
409 1 1 12.996094 2.986128 14.515887
410 1 1 12.683534 2.940071 14.304736
411 1 1 12.372003 3.155432 14.335851
412 1 1 12.042641 3.075236 14.164125
413 1 1 11.694459 3.161544 14.289503
414 1 1 11.319464 3.100934 14.299772
415 1 1 11.059414 2.830752 14.238323
416 1 1 10.769686 2.825103 13.992507
417 1 1 10.399304 2.793200 13.913770
418 1 1 10.339138 3.033062 13.625246
419 1 1 10.461239 3.390382 13.667835
420 1 1 10.703022 3.572915 13.438439
421 1 1 10.655084 3.800242 13.137733
422 1 1 10.487789 4.128590 13.230466
423 1 1 10.377315 4.364348 13.507258
424 1 1 10.076558 4.354733 13.739320
425 1 1 10.017010 4.167293 14.064466
426 1 1 9.730696 3.938358 14.164531
427 1 1 9.378999 3.928008 14.020996
428 1 1 9.005530 3.906286 13.954293
429 1 1 8.687977 4.105111 14.017766
430 1 1 8.449938 4.392976 14.087560
431 1 1 8.196581 4.454013 14.364119
432 1 1 7.967697 4.194355 14.520929
433 1 1 7.661458 3.978024 14.459134
434 1 1 7.515034 3.755684 14.187978
435 1 1 7.715333 3.496348 13.995559
436 1 1 7.806598 3.191426 14.203149
437 1 1 7.677651 3.048617 14.530835
438 1 1 7.563632 2.693558 14.457812
439 1 1 7.271515 2.461045 14.387066
440 1 1 7.111493 2.135406 14.499992
441 1 1 7.169552 1.928704 14.813526
442 1 1 7.274484 2.027978 15.165000
443 1 1 7.603728 2.179710 15.278911
444 1 1 7.794386 1.960838 15.524154
445 1 1 8.104879 1.778583 15.645714
446 1 1 8.247095 1.464057 15.486817
447 1 1 8.587137 1.340698 15.603240
448 1 1 8.689505 0.990956 15.495532
449 1 1 9.046640 0.861608 15.506651
450 1 1 9.318273 1.117789 15.577273
451 1 1 27.130085 22.844562 13.753659
452 1 1 27.007639 22.851238 13.393989
453 1 1 26.847489 22.938948 13.060734
454 1 1 26.763525 23.141700 12.750505
455 1 1 26.438736 23.338737 12.741128
456 1 1 26.300819 23.625429 12.533313
457 1 1 26.367858 23.971294 12.675730
458 1 1 26.561750 24.297011 12.649002
459 1 1 26.908774 24.207382 12.522744
460 1 1 27.013286 23.927845 12.287508
461 1 1 27.302039 23.680925 12.294704
462 1 1 27.442500 23.652301 11.942779
463 1 1 27.326091 23.962505 11.756707
464 1 1 27.454766 24.296848 11.629989
465 1 1 27.821684 24.374521 11.568847
466 1 1 28.135271 24.405496 11.356471
467 1 1 28.438018 24.268763 11.171950
468 1 1 28.627029 24.149332 10.864685
469 1 1 28.806482 23.814381 10.866862
470 1 1 29.055364 23.762008 11.149200
471 1 1 29.141408 23.739454 11.518642
472 1 1 28.885965 23.926208 11.729051
473 1 1 28.804656 23.939968 12.099995
474 1 1 28.473437 24.063014 12.239829
475 1 1 28.256874 24.331917 12.081110
476 1 1 28.011349 24.453471 12.344440
477 1 1 27.677788 24.301322 12.244503
478 1 1 27.455734 24.595427 12.151799
479 1 1 27.250289 24.870179 11.988386
480 1 1 27.075265 25.187728 11.874680
481 1 1 27.293287 25.388144 11.636562
482 1 1 27.168326 25.645802 11.386767
483 1 1 27.459884 25.772454 11.178554
484 1 1 27.822767 25.777201 11.291221
485 1 1 28.097180 26.038584 11.263357
486 1 1 28.438299 25.974232 11.108772
487 1 1 28.412066 26.071545 10.742381
488 1 1 28.231182 26.400002 10.680764
489 1 1 27.939226 26.486236 10.453331
490 1 1 27.755920 26.699934 10.198122
491 1 1 27.722119 26.680772 9.820113
492 1 1 28.000355 26.482206 9.654113
493 1 1 28.026129 26.157505 9.458396
494 1 1 28.256797 25.855568 9.453272
495 1 1 28.508513 25.587825 9.549985
496 1 1 28.304480 25.284373 9.653363
497 1 1 27.994565 25.078399 9.576373
498 1 1 27.674806 25.055987 9.372285
499 1 1 27.699438 24.900664 9.026354
500 1 1 27.685391 24.998861 8.659530
501 1 1 27.485742 24.986872 8.336425
502 1 1 27.128466 24.998190 8.207485
503 1 1 26.871156 25.276518 8.180548
504 1 1 26.577562 25.250873 8.420433
505 1 1 26.336500 24.957787 8.400700
506 1 1 26.202700 24.650930 8.580524
507 1 1 26.457790 24.545477 8.841692
508 1 1 26.539383 24.182924 8.762332
509 1 1 26.795809 23.924650 8.871602
510 1 1 26.930084 23.598416 8.730386
511 1 1 27.294186 23.576941 8.837010
512 1 1 27.524382 23.366473 9.054064
513 1 1 27.462869 23.121062 9.337595
514 1 1 27.192462 22.870554 9.245256
515 1 1 26.816688 22.924806 9.229430
516 1 1 26.595094 23.146770 9.443971
517 1 1 26.501909 23.515167 9.444083
518 1 1 26.293894 23.590351 9.753077
519 1 1 26.092951 23.297062 9.887255
520 1 1 25.713491 23.295273 9.867094
521 1 1 25.512927 23.388005 10.176246
522 1 1 25.619011 23.409685 10.540494
523 1 1 25.613327 23.774974 10.645047
524 1 1 25.674664 23.899839 10.998667
525 1 1 25.419849 24.088243 11.208364
526 1 1 25.311371 24.149819 11.567308
527 1 1 25.537508 24.069105 11.861837
528 1 1 25.321177 24.059457 12.174099
529 1 1 25.062162 24.120956 12.445262
530 1 1 25.212545 24.330259 12.724506
531 1 1 25.488670 24.572291 12.822361
532 1 1 25.718376 24.872930 12.786985
533 1 1 25.945164 24.905783 12.483855
534 1 1 25.984272 25.130251 12.179742
535 1 1 26.254905 24.992500 11.951308
536 1 1 26.150958 24.890807 11.600233
537 1 1 25.942199 24.659772 11.382421
538 1 1 25.838351 24.713130 11.020801
539 1 1 25.485899 24.741885 10.881695
540 1 1 25.228657 24.499471 10.742189
541 1 1 24.968248 24.508162 10.465581
542 1 1 24.976203 24.447647 10.090515
543 1 1 25.178378 24.265746 9.825115
544 1 1 25.416748 24.433364 9.581221
545 1 1 25.732837 24.617196 9.477814
546 1 1 26.055089 24.593426 9.677786
547 1 1 26.370926 24.597451 9.466526
548 1 1 26.438920 24.231664 9.389215
549 1 1 26.128332 24.074392 9.236897
550 1 1 25.845966 24.033898 8.985840
551 1 1 25.948520 23.743534 8.763194
552 1 1 26.010645 23.369051 8.780604
553 1 1 25.939135 23.250959 9.134638
554 1 1 25.616114 23.423671 9.235772
555 1 1 25.284347 23.264994 9.331441
556 1 1 25.047717 23.429904 9.578849
557 1 1 24.805795 23.156613 9.684608
558 1 1 24.656209 22.808430 9.712770
559 1 1 24.806996 22.597833 9.434719
560 1 1 24.699568 22.240594 9.362335
561 1 1 24.399239 22.142810 9.151050
562 1 1 24.109895 22.161058 8.905394
563 1 1 23.746271 22.198247 9.009290
564 1 1 23.416883 22.035357 9.106091
565 1 1 23.082361 21.871928 9.182157
566 1 1 22.835334 21.616427 9.047632
567 1 1 22.594541 21.360272 9.191866
568 1 1 22.599957 21.049988 8.972561
569 1 1 22.720959 20.759787 8.759157
570 1 1 22.875675 20.415917 8.806241
571 1 1 23.232309 20.292682 8.761244
572 1 1 23.526472 20.108955 8.916527
573 1 1 23.518680 20.110589 9.296444
574 1 1 23.514794 19.811794 9.531191
575 1 1 23.544490 19.453791 9.655094
576 1 1 23.591788 19.232917 9.960672
577 1 1 23.922445 19.048188 9.991354
578 1 1 24.047884 19.123149 10.342133
579 1 1 23.889460 19.370114 10.583607
580 1 1 24.077670 19.498222 10.887853
581 1 1 24.168661 19.821723 11.065243
582 1 1 23.997679 19.851861 11.403262
583 1 1 23.886676 19.646614 11.703182
584 1 1 23.673617 19.657614 12.017643
585 1 1 23.606654 19.329692 12.197597
586 1 1 23.615398 19.126642 12.518680
587 1 1 23.538946 19.044334 12.881696
588 1 1 23.621196 18.693064 13.001044
589 1 1 23.936360 18.673095 13.212403
590 1 1 24.099307 18.959960 13.400969
591 1 1 23.904882 19.252347 13.546257
592 1 1 23.992168 19.301362 13.912834
593 1 1 23.891070 19.341134 14.276973
594 1 1 23.731075 19.646024 14.437733
595 1 1 23.434472 19.526696 14.643128
596 1 1 23.185280 19.295445 14.473344
597 1 1 22.981868 19.510523 14.235090
598 1 1 23.227246 19.757108 14.082166
599 1 1 23.524519 19.696720 13.853295
600 1 1 23.772720 19.981085 13.897260
601 1 1 24.132423 20.074194 13.976910
602 1 1 24.314623 20.068268 13.643491
603 1 1 24.536560 19.819716 13.460828
604 1 1 24.831317 19.605023 13.353940
605 1 1 25.000507 19.370803 13.600750
606 1 1 25.089337 19.092062 13.843264
607 1 1 24.838427 18.903732 14.057684
608 1 1 24.591560 18.756241 14.306084
609 1 1 24.539184 18.545805 14.618132
610 1 1 24.543311 18.435429 14.981725
611 1 1 24.430787 18.115319 15.152805
612 1 1 24.645359 17.804684 15.195982
613 1 1 24.910764 17.576129 15.048596
614 1 1 25.230743 17.384077 14.976973
615 1 1 25.578262 17.247451 15.047429
616 1 1 25.895527 17.320087 15.243559
617 1 1 25.876860 17.506808 15.573993
618 1 1 26.014942 17.685487 15.879619
619 1 1 25.714657 17.770174 16.096545
620 1 1 25.464736 17.690170 16.371389
621 1 1 25.444171 17.311523 16.395942
622 1 1 25.127252 17.174768 16.554877
623 1 1 24.992597 17.243652 16.903478
624 1 1 24.954366 17.016035 17.205354
625 1 1 24.750731 16.695443 17.217747
626 1 1 24.665463 16.643333 17.584372
627 1 1 24.939831 16.604483 17.844396
628 1 1 24.924398 16.713082 18.208221
629 1 1 25.164250 16.491742 18.402847
630 1 1 25.414309 16.298698 18.191650
631 1 1 25.314725 16.010820 17.964472
632 1 1 25.628821 15.855738 17.817185
633 1 1 25.948798 16.015374 17.688611
634 1 1 26.234687 16.084682 17.929160
635 1 1 26.603632 16.085309 17.838168
636 1 1 26.899268 16.191649 18.051922
637 1 1 27.014474 16.533066 18.172596
638 1 1 27.059683 16.765836 17.875654
639 1 1 26.858917 16.971532 17.627094
640 1 1 26.656065 17.235166 17.810802
641 1 1 26.434099 17.517149 17.935766
642 1 1 26.156031 17.763580 18.015455
643 1 1 25.992567 17.802425 18.356293
644 1 1 25.662837 17.616932 18.391936
645 1 1 25.323695 17.737167 18.514111
646 1 1 25.257661 18.106826 18.455871
647 1 1 24.910644 18.259214 18.428361
648 1 1 24.618023 18.360081 18.648813
649 1 1 24.656359 18.506454 18.997389
650 1 1 24.576073 18.845626 19.148772
651 1 1 24.238383 18.986493 19.251350
652 1 1 23.919977 19.091274 19.072358
653 1 1 24.010403 19.168686 18.711484
654 1 1 23.831275 19.411198 18.480180
655 1 1 23.829540 19.791179 18.476795
656 1 1 23.612093 19.970160 18.731909
657 1 1 23.371858 20.250788 18.642831
658 1 1 23.211082 20.254508 18.298539
659 1 1 23.239716 20.172279 17.928649
660 1 1 22.947151 20.271174 17.707232
661 1 1 22.817045 20.616025 17.614766
662 1 1 22.682778 20.963388 17.539193
663 1 1 22.728127 21.326689 17.640957
664 1 1 22.376463 21.469478 17.659508
665 1 1 22.142753 21.702597 17.847749
666 1 1 22.053675 22.053842 17.962169
667 1 1 22.266938 22.212053 18.233993
668 1 1 22.357808 22.485333 18.481906
669 1 1 22.504050 22.340162 18.801184
670 1 1 22.528732 22.095221 19.090657
671 1 1 22.255676 22.065362 19.353239
672 1 1 22.257901 22.002687 19.728028
673 1 1 21.924107 21.850722 19.827467
674 1 1 21.974297 21.483755 19.912414
675 1 1 22.112769 21.254332 19.642988
676 1 1 22.281579 20.951642 19.798815
677 1 1 22.086528 20.683062 19.983800
678 1 1 21.837657 20.397062 20.009630
679 1 1 21.637786 20.075685 19.975447
680 1 1 21.465007 19.744700 20.046132
681 1 1 21.675323 19.435843 20.115230
682 1 1 21.676038 19.061258 20.179147
683 1 1 21.556162 18.907664 20.505396
684 1 1 21.623660 18.693802 20.812165
685 1 1 21.590723 18.563448 21.167585
686 1 1 21.248239 18.420348 21.248993
687 1 1 21.022899 18.195778 21.456816
688 1 1 20.793911 18.012594 21.698493
689 1 1 20.582383 17.826683 21.953627
690 1 1 20.473035 17.506654 22.126902
691 1 1 20.560041 17.370336 22.470773
692 1 1 20.753852 17.600780 22.702576
693 1 1 20.622666 17.750883 23.026087
694 1 1 20.340470 18.005372 23.025659
695 1 1 20.293141 18.344145 22.860151
696 1 1 20.193965 18.269175 22.501063
697 1 1 19.952214 18.215828 22.212775
698 1 1 19.923867 18.435699 21.904144
699 1 1 19.620018 18.493818 21.683468
700 1 1 19.240934 18.488028 21.657741
701 1 1 19.044988 18.290033 21.916205
702 1 1 18.683806 18.211463 21.828033
703 1 1 18.334334 18.359537 21.846556
704 1 1 18.072566 18.183168 22.058149
705 1 1 17.974697 18.114682 22.418886
706 1 1 17.966337 18.270972 22.765157
707 1 1 18.177313 18.267165 23.081186
708 1 1 18.511097 18.423171 23.174194
709 1 1 18.496015 18.802826 23.180067
710 1 1 18.329781 18.976048 23.474618
711 1 1 18.372578 18.787433 23.801715
712 1 1 18.558486 19.010732 24.046615
713 1 1 18.525913 18.877455 24.400982
714 1 1 18.854507 18.814684 24.581221
715 1 1 19.187003 18.796675 24.764311
716 1 1 19.231229 18.777244 25.141228
717 1 1 19.579677 18.805919 25.290097
718 1 1 19.921438 18.887636 25.434740
719 1 1 20.213639 18.647885 25.473960
720 1 1 20.179696 18.303447 25.317084
721 1 1 19.873980 18.136585 25.165113
722 1 1 19.650339 17.837137 25.233782
723 1 1 19.639121 17.463979 25.162880
724 1 1 19.290670 17.315287 25.133335
725 1 1 19.014359 17.093987 25.271461
726 1 1 18.803756 17.290068 25.519652
727 1 1 18.478508 17.442446 25.643726
728 1 1 18.204829 17.688260 25.738992
729 1 1 17.874734 17.772248 25.570518
730 1 1 17.748751 17.450395 25.412598
731 1 1 17.508339 17.184941 25.539626
732 1 1 17.720254 16.896425 25.667104
733 1 1 17.766999 16.607203 25.909107
734 1 1 17.894388 16.585448 26.266457
735 1 1 18.142859 16.823348 26.427906
736 1 1 18.467122 16.764807 26.238627
737 1 1 18.785603 16.771465 26.445813
738 1 1 19.136947 16.688198 26.327391
739 1 1 19.352379 16.991711 26.403997
740 1 1 19.506139 17.067225 26.743196
741 1 1 19.656995 17.052092 27.091640
742 1 1 19.915126 17.216595 27.316822
743 1 1 20.258925 17.211730 27.478621
744 1 1 20.513268 17.011899 27.279180
745 1 1 20.870850 17.135715 27.244466
746 1 1 20.890209 17.434184 27.010070
747 1 1 21.203247 17.573206 26.845510
748 1 1 21.442100 17.752311 26.610414
749 1 1 21.514230 17.670584 26.246384
750 1 1 21.298845 17.793787 25.958581
751 1 1 21.007082 17.704887 25.731928
752 1 1 20.687597 17.500063 25.751315
753 1 1 20.320246 17.595175 25.731140
754 1 1 20.257841 17.833206 26.020704
755 1 1 20.438931 17.838540 26.354736
756 1 1 20.532882 18.014945 26.677931
757 1 1 20.342333 18.168137 26.968832
758 1 1 20.052000 18.295913 27.178068
759 1 1 20.112461 18.667490 27.229789
760 1 1 20.184024 18.968777 27.009552
761 1 1 20.413447 19.189810 27.216698
762 1 1 20.674108 18.959937 27.370368
763 1 1 20.667445 18.741748 27.681413
764 1 1 20.929581 18.483765 27.776961
765 1 1 20.874650 18.155862 27.960979
766 1 1 20.960036 17.873378 28.200378
767 1 1 20.705262 17.640263 28.358957
768 1 1 20.404692 17.584335 28.584634
769 1 1 20.074586 17.750480 28.673097
770 1 1 19.959435 18.038886 28.892099
771 1 1 19.817198 18.054805 29.244115
772 1 1 19.643409 18.356614 29.396131
773 1 1 19.715990 18.710189 29.277317
774 1 1 20.028576 18.879986 29.143682
775 1 1 20.161183 19.187659 28.964368
776 1 1 20.471163 19.299957 28.775420
777 1 1 20.711319 19.212788 28.494125
778 1 1 20.791882 19.495431 28.253245
779 1 1 20.944690 19.631288 27.932944
780 1 1 21.105258 19.648169 27.588949
781 1 1 21.154880 19.569057 27.220603
782 1 1 21.497008 19.492110 27.074221
783 1 1 21.720905 19.257428 27.272197
784 1 1 22.019983 19.025105 27.303482
785 1 1 22.313693 19.114746 27.079654
786 1 1 22.293490 18.981971 26.724179
787 1 1 22.599595 18.893930 26.516938
788 1 1 22.975693 18.948009 26.521971
789 1 1 23.135022 19.263669 26.382783
790 1 1 23.496169 19.175567 26.303974
791 1 1 23.824886 19.365486 26.287356
792 1 1 24.063364 19.603857 26.112121
793 1 1 24.360047 19.747123 25.922770
794 1 1 24.705949 19.838436 26.050886
795 1 1 24.879039 20.176683 26.056223
796 1 1 25.222915 20.287886 26.173625
797 1 1 25.406999 20.619765 26.154415
798 1 1 25.368968 20.975013 26.024984
799 1 1 25.019611 21.116071 26.074509
800 1 1 24.713005 20.903749 26.147394