LAMMPS data file for polymer system

22500 atoms
22450 bonds

1 atom types
1 bond types

0.0 31.04385442133693 xlo xhi
0.0 31.04385442133693 ylo yhi
0.0 31.04385442133693 zlo zhi

Masses

1 5.65487

Atoms

1 1 1 7.298716 17.456644 20.033947
2 1 1 7.141223 17.589211 20.353355
3 1 1 7.182669 17.722807 20.706674
4 1 1 7.532893 17.869014 20.725818
5 1 1 7.601228 18.172282 20.944357
6 1 1 7.500566 18.537384 20.975464
7 1 1 7.147597 18.617195 21.091408
8 1 1 7.005008 18.612079 21.443604
9 1 1 6.937530 18.959959 21.580814
10 1 1 6.842259 19.226006 21.326762
11 1 1 6.733202 19.235792 20.962879
12 1 1 6.413775 19.439486 20.933297
13 1 1 6.126210 19.686102 20.963080
14 1 1 5.979115 19.784926 20.626929
15 1 1 5.976862 19.607819 20.290733
16 1 1 5.874875 19.472725 19.950515
17 1 1 5.590272 19.657656 19.779629
18 1 1 5.255171 19.672638 19.958186
19 1 1 5.084825 19.337585 19.902314
20 1 1 4.919678 19.065805 19.694318
21 1 1 4.911083 18.687402 19.728037
22 1 1 5.187265 18.477897 19.883700
23 1 1 5.374881 18.236800 20.109693
24 1 1 5.357557 18.025010 20.424725
25 1 1 5.563626 17.841499 20.685989
26 1 1 5.579705 17.750838 21.054665
27 1 1 5.462009 17.469759 21.281694
28 1 1 5.189736 17.295072 21.481073
29 1 1 5.257285 17.338749 21.852462
30 1 1 5.181753 17.661830 22.037701
31 1 1 4.809107 17.736195 22.039920
32 1 1 4.472739 17.849788 22.175393
33 1 1 4.199749 18.074235 22.035749
34 1 1 4.016863 17.941081 21.730424
35 1 1 3.648957 18.018336 21.785889
36 1 1 3.480118 17.990701 22.125197
37 1 1 3.333909 18.268377 22.339484
38 1 1 3.225585 18.563887 22.552416
39 1 1 3.043158 18.874248 22.674056
40 1 1 2.876738 18.964272 23.003601
41 1 1 3.032319 18.932778 23.348859
42 1 1 3.141679 19.227252 23.562694
43 1 1 3.131983 19.425191 23.886926
44 1 1 3.478782 19.540875 23.990595
45 1 1 3.696816 19.813774 24.140219
46 1 1 3.948490 19.816078 24.424921
47 1 1 4.242065 19.611915 24.296349
48 1 1 4.552845 19.662783 24.083680
49 1 1 4.676604 19.399239 23.839491
50 1 1 4.875683 19.106922 23.978480
51 1 1 5.129634 18.939457 24.206218
52 1 1 5.282260 19.165981 24.470400
53 1 1 5.163167 19.361485 24.773707
54 1 1 5.243969 19.166653 25.089794
55 1 1 5.385573 19.216863 25.438832
56 1 1 5.707184 19.419250 25.441175
57 1 1 6.061652 19.488976 25.559034
58 1 1 6.030660 19.558018 25.931421
59 1 1 5.936422 19.239764 26.116445
60 1 1 5.655720 18.988415 26.165739
61 1 1 5.740302 18.724102 26.425325
62 1 1 5.723054 18.514560 26.741860
63 1 1 5.503584 18.249967 26.903797
64 1 1 5.422770 17.890373 26.996327
65 1 1 5.481116 17.857392 27.370369
66 1 1 5.435843 17.792309 27.742007
67 1 1 5.621587 17.767664 28.072600
68 1 1 5.940784 17.970339 28.034702
69 1 1 6.074099 18.281030 28.208190
70 1 1 6.050960 18.642597 28.322795
71 1 1 5.989837 18.988196 28.177108
72 1 1 6.175751 19.218510 27.938798
73 1 1 6.528553 19.306181 28.049452
74 1 1 6.835568 19.114708 28.165555
75 1 1 7.107255 18.897443 28.012644
76 1 1 7.019976 18.856639 27.645061
77 1 1 6.726699 19.063451 27.520091
78 1 1 6.861031 19.338117 27.294452
79 1 1 6.919797 19.705826 27.218707
80 1 1 7.084386 19.934755 27.473465
81 1 1 7.168510 19.764174 27.802441
82 1 1 7.008919 19.806766 28.144664
83 1 1 7.209843 19.686045 28.443756
84 1 1 7.474503 19.923094 28.578527
85 1 1 7.576882 20.212208 28.354180
86 1 1 7.749169 20.132382 28.025022
87 1 1 7.937223 19.810868 27.949756
88 1 1 8.297435 19.705797 28.009813
89 1 1 8.439229 19.441336 28.242954
90 1 1 8.201910 19.403571 28.537324
91 1 1 8.335569 19.406114 28.893033
92 1 1 8.369177 19.076485 29.079084
93 1 1 8.568547 18.768700 28.979484
94 1 1 8.648282 18.682666 28.618042
95 1 1 8.981248 18.834023 28.514965
96 1 1 9.166910 18.622552 28.259603
97 1 1 9.445823 18.626920 28.001556
98 1 1 9.520484 18.879757 27.727880
99 1 1 9.546339 19.258847 27.732571
100 1 1 9.806303 19.357126 27.473418
101 1 1 10.069475 19.459186 27.219009
102 1 1 10.144295 19.745445 26.980561
103 1 1 9.912905 20.042593 27.031172
104 1 1 9.688111 20.348733 27.019083
105 1 1 9.396291 20.273505 27.250561
106 1 1 9.103728 20.060235 27.365986
107 1 1 8.824518 19.923409 27.584436
108 1 1 8.655806 19.608931 27.453901
109 1 1 8.288083 19.550223 27.378183
110 1 1 7.983901 19.367506 27.514152
111 1 1 7.758648 19.112919 27.344308
112 1 1 7.798072 19.185613 26.973415
113 1 1 7.923516 19.288248 26.629715
114 1 1 7.725300 19.291022 26.305520
115 1 1 7.469103 19.571666 26.307067
116 1 1 7.136420 19.609177 26.486831
117 1 1 7.136394 19.929948 26.690560
118 1 1 7.326637 20.202653 26.874517
119 1 1 7.673043 20.340466 26.948070
120 1 1 8.012717 20.288503 27.110309
121 1 1 8.146386 20.259867 27.464869
122 1 1 8.375681 20.496126 27.654620
123 1 1 8.230867 20.549227 28.001908
124 1 1 8.254639 20.707614 28.346508
125 1 1 8.357119 21.037497 28.504857
126 1 1 8.669145 21.243640 28.572276
127 1 1 8.714240 21.508959 28.303999
128 1 1 8.797425 21.389313 27.953050
129 1 1 8.528946 21.224246 27.740748
130 1 1 8.446340 21.286937 27.375171
131 1 1 8.652163 21.373954 27.067821
132 1 1 8.664124 21.745639 26.989670
133 1 1 8.872285 22.046768 26.887736
134 1 1 9.226975 22.182401 26.873633
135 1 1 9.396866 22.058491 27.190150
136 1 1 9.409686 21.811501 27.478650
137 1 1 9.486085 22.019452 27.787389
138 1 1 9.575631 22.234369 28.087709
139 1 1 9.283351 22.364079 28.293007
140 1 1 9.399308 22.389753 28.653971
141 1 1 9.418633 22.293710 29.021126
142 1 1 9.159218 22.096161 29.216262
143 1 1 8.828703 22.283110 29.230747
144 1 1 8.859202 22.661883 29.231685
145 1 1 8.716768 22.965956 29.409596
146 1 1 8.496741 23.260931 29.314842
147 1 1 8.553552 23.610784 29.451866
148 1 1 8.680411 23.819169 29.743211
149 1 1 9.023019 23.967110 29.671562
150 1 1 9.351323 23.812045 29.559441
151 1 1 9.342186 23.435576 29.610315
152 1 1 9.280396 23.089615 29.754858
153 1 1 9.442374 22.804137 29.946341
154 1 1 9.636930 22.500061 30.065025
155 1 1 9.735626 22.136736 30.013511
156 1 1 10.078972 22.070586 30.162299
157 1 1 10.381838 22.009580 30.383547
158 1 1 10.295752 21.795455 30.685440
159 1 1 9.937930 21.682778 30.624882
160 1 1 9.728984 21.368149 30.666716
161 1 1 9.402529 21.277002 30.838526
162 1 1 9.557129 21.413233 0.113952
163 1 1 9.373490 21.368568 0.443621
164 1 1 9.297463 21.708304 0.595934
165 1 1 9.405111 22.047998 0.463950
166 1 1 9.434141 22.315647 0.195769
167 1 1 9.353239 22.679674 0.122700
168 1 1 9.274479 22.594771 30.804632
169 1 1 9.173988 22.230721 30.846699
170 1 1 9.067029 21.867982 30.809550
171 1 1 8.891941 21.610425 31.027284
172 1 1 8.648362 21.372239 30.858948
173 1 1 8.510291 21.487778 0.149738
174 1 1 8.656565 21.827257 0.061658
175 1 1 8.463971 22.136033 0.171042
176 1 1 8.275933 22.462586 0.121999
177 1 1 8.436603 22.210814 30.930914
178 1 1 8.060893 22.198021 30.986396
179 1 1 7.693789 22.211299 0.039795
180 1 1 7.487981 22.449604 30.870921
181 1 1 7.347197 22.790749 30.961476
182 1 1 7.353199 23.161059 30.876422
183 1 1 7.562859 23.471971 30.937872
184 1 1 7.430181 23.734582 0.134501
185 1 1 7.530807 23.788201 0.496992
186 1 1 7.640822 24.071056 0.725661
187 1 1 7.527982 24.412193 0.849325
188 1 1 7.357752 24.748452 0.897820
189 1 1 7.160479 25.068536 0.952861
190 1 1 7.102876 25.434931 1.035547
191 1 1 7.141320 25.548308 1.396196
192 1 1 7.047638 25.715308 1.724426
193 1 1 6.879152 26.055684 1.711917
194 1 1 6.763561 26.406681 1.800459
195 1 1 6.913115 26.754773 1.771038
196 1 1 6.770934 27.069611 1.612729
197 1 1 6.719741 27.111513 1.238532
198 1 1 6.923764 26.963195 0.954320
199 1 1 7.268187 27.017725 0.803324
200 1 1 7.361283 27.106357 0.445725
201 1 1 7.511162 27.314113 0.165059
202 1 1 7.185734 27.312550 31.012715
203 1 1 6.902286 27.564102 31.040629
204 1 1 6.748043 27.634507 30.700552
205 1 1 6.869208 27.939938 30.509683
206 1 1 6.686825 27.926454 30.176585
207 1 1 6.749758 27.943324 29.802212
208 1 1 6.625504 28.277754 29.671377
209 1 1 6.509454 28.634702 29.612046
210 1 1 6.265231 28.922600 29.655288
211 1 1 6.250856 29.290339 29.749955
212 1 1 6.092942 29.554946 29.527590
213 1 1 6.053152 29.766628 29.214529
214 1 1 5.850810 29.889422 28.917242
215 1 1 5.810024 30.256722 28.828773
216 1 1 6.073213 30.465014 28.650597
217 1 1 6.151573 30.832982 28.704067
218 1 1 6.500992 30.965848 28.635855
219 1 1 6.709952 0.189761 28.806255
220 1 1 6.345038 0.204968 28.911166
221 1 1 6.261376 0.450684 29.188698
222 1 1 6.210653 0.791272 29.349407
223 1 1 5.966706 0.855873 29.633514
224 1 1 5.904925 1.063668 29.945610
225 1 1 5.942102 0.899345 30.286222
226 1 1 5.636836 0.719897 30.424102
227 1 1 5.411562 0.613026 30.137344
228 1 1 5.276775 0.309462 29.952732
229 1 1 5.001117 0.070231 30.058473
230 1 1 5.037188 30.769407 29.902601
231 1 1 5.237170 30.483659 30.053450
232 1 1 5.202683 30.190828 30.293160
233 1 1 5.004891 30.240462 30.613807
234 1 1 5.189488 30.291515 30.942010
235 1 1 5.518622 30.189078 0.058085
236 1 1 5.348947 30.128154 0.392597
237 1 1 4.986684 30.240385 0.416458
238 1 1 4.609021 30.258545 0.378497
239 1 1 4.387388 29.986470 0.232709
240 1 1 4.435457 30.273291 31.031976
241 1 1 4.279002 30.587667 30.886752
242 1 1 4.058085 30.549859 30.579887
243 1 1 3.889966 30.210919 30.615320
244 1 1 4.087275 29.886364 30.626877
245 1 1 4.076267 29.595028 30.383151
246 1 1 4.376201 29.645518 30.155357
247 1 1 4.453743 29.436603 29.847555
248 1 1 4.469369 29.056926 29.846540
249 1 1 4.796049 28.864891 29.874872
250 1 1 5.040016 28.839398 29.584647
251 1 1 5.083517 29.120507 29.332684
252 1 1 5.025965 29.452017 29.156081
253 1 1 4.909748 29.722113 28.915370
254 1 1 4.918013 30.061379 29.086340
255 1 1 4.913504 30.395478 28.905351
256 1 1 4.823306 30.739723 29.038619
257 1 1 4.546107 30.828709 29.282836
258 1 1 4.200101 30.725480 29.401257
259 1 1 3.938728 30.784644 29.670670
260 1 1 4.035507 30.834657 30.034720
261 1 1 4.159529 0.044234 30.289262
262 1 1 3.936735 0.269376 30.079325
263 1 1 3.622169 0.453739 29.972281
264 1 1 3.299263 0.263290 30.034420
265 1 1 3.267421 30.933640 30.096712
266 1 1 3.379256 30.928950 30.459853
267 1 1 3.670252 0.026224 30.659362
268 1 1 3.573488 0.393447 30.645792
269 1 1 3.455442 0.509478 30.987847
270 1 1 3.485942 0.644514 0.297879
271 1 1 3.609988 0.878203 0.025112
272 1 1 3.846275 0.931278 30.776133
273 1 1 4.073726 1.218782 30.876172
274 1 1 3.932810 1.564888 30.945112
275 1 1 4.191584 1.795639 0.056788
276 1 1 4.152689 1.507960 0.301998
277 1 1 4.118666 1.146389 0.413842
278 1 1 4.320862 0.833728 0.489734
279 1 1 4.329367 0.709802 0.848858
280 1 1 4.397116 0.658022 1.219167
281 1 1 4.458108 0.751960 1.582286
282 1 1 4.618820 1.051553 1.752039
283 1 1 4.375315 1.303155 1.899693
284 1 1 3.997044 1.266941 1.899953
285 1 1 3.795944 1.577027 1.811605
286 1 1 3.593874 1.697574 1.513216
287 1 1 3.399158 1.863055 1.231967
288 1 1 3.535156 2.180909 1.074254
289 1 1 3.644057 2.264409 0.719898
290 1 1 3.842866 2.281624 0.396511
291 1 1 4.157039 2.494408 0.376058
292 1 1 4.457758 2.263687 0.403183
293 1 1 4.677708 2.139379 0.687030
294 1 1 4.880096 2.141920 1.008640
295 1 1 5.247494 2.236339 1.031085
296 1 1 5.463246 2.382896 1.307440
297 1 1 5.794340 2.397641 1.493341
298 1 1 6.125124 2.446937 1.312920
299 1 1 6.420154 2.469712 1.074511
300 1 1 6.782757 2.528133 0.977014
301 1 1 6.894081 2.232756 0.765448
302 1 1 7.087340 1.985759 0.980026
303 1 1 7.320287 1.873132 1.258326
304 1 1 7.199489 1.856033 1.618208
305 1 1 6.825287 1.796081 1.590309
306 1 1 6.518617 1.969839 1.448317
307 1 1 6.242783 1.943103 1.708318
308 1 1 5.955471 1.855451 1.941060
309 1 1 5.672033 1.675312 2.118861
310 1 1 5.497740 1.905112 2.366276
311 1 1 5.154204 1.870680 2.525014
312 1 1 4.849215 2.076852 2.430808
313 1 1 4.552465 1.881564 2.295894
314 1 1 4.281051 1.682433 2.472193
315 1 1 4.151735 1.327745 2.515478
316 1 1 3.873922 1.154315 2.708201
317 1 1 3.726049 1.087871 3.051885
318 1 1 3.666680 0.956483 3.403471
319 1 1 3.331073 0.781534 3.437541
320 1 1 3.066987 1.024626 3.562299
321 1 1 2.688290 0.999894 3.542886
322 1 1 2.313059 0.956588 3.584438
323 1 1 2.151549 1.299338 3.555515
324 1 1 1.953490 1.456198 3.839360
325 1 1 2.141147 1.598668 4.137499
326 1 1 2.418719 1.373672 4.266846
327 1 1 2.675872 1.094382 4.283270
328 1 1 2.872783 0.799925 4.145718
329 1 1 3.052152 0.484620 4.032537
330 1 1 3.299662 0.246406 4.194996
331 1 1 3.232872 30.963076 4.013643
332 1 1 3.263501 30.830542 4.368462
333 1 1 3.097072 30.677017 4.673636
334 1 1 3.206770 30.560558 5.018315
335 1 1 3.408376 30.775690 5.258051
336 1 1 3.609353 0.028045 5.385598
337 1 1 3.705226 0.000912 5.752303
338 1 1 3.525554 0.121003 6.064867
339 1 1 3.248069 30.990496 5.872512
340 1 1 3.080058 30.748190 6.112220
341 1 1 3.215059 30.406676 6.014532
342 1 1 3.064894 30.088824 5.870238
343 1 1 2.759093 29.998449 5.663553
344 1 1 2.390961 29.947118 5.742568
345 1 1 2.248634 30.029701 6.085093
346 1 1 2.322835 30.017805 6.457588
347 1 1 2.699891 29.979300 6.484900
348 1 1 2.820573 29.625228 6.418052
349 1 1 3.175001 29.490257 6.394303
350 1 1 3.382862 29.273825 6.161170
351 1 1 3.398610 29.472004 5.837322
352 1 1 3.741948 29.613726 5.757111
353 1 1 4.071010 29.712460 5.919499
354 1 1 4.097146 29.857795 6.269634
355 1 1 4.086870 30.192470 6.449320
356 1 1 4.232732 30.179657 6.799976
357 1 1 4.074049 30.167818 7.145055
358 1 1 4.306550 30.129621 7.443189
359 1 1 4.166654 29.996533 7.770476
360 1 1 4.309522 29.995224 8.122593
361 1 1 4.682645 29.925882 8.141851
362 1 1 4.867688 29.902942 8.472959
363 1 1 5.071852 30.217384 8.534955
364 1 1 5.174220 30.506634 8.310779
365 1 1 5.527865 30.599566 8.207343
366 1 1 5.659634 30.678326 7.859732
367 1 1 5.644541 0.008302 7.793222
368 1 1 5.756100 0.247268 7.519636
369 1 1 5.638171 0.591497 7.410096
370 1 1 5.394556 0.698488 7.138794
371 1 1 5.583011 0.941443 6.915506
372 1 1 5.416898 1.002490 6.579233
373 1 1 5.336687 0.755901 6.301456
374 1 1 5.033361 0.542894 6.385249
375 1 1 4.842019 0.280872 6.187430
376 1 1 5.075735 0.156696 5.914746
377 1 1 5.415584 0.110314 5.751187
378 1 1 5.698225 31.035527 5.975772
379 1 1 6.015622 0.175725 6.074684
380 1 1 6.333823 0.277969 6.255499
381 1 1 6.591789 0.478831 6.061829
382 1 1 6.561186 0.567693 5.693635
383 1 1 6.754515 0.490252 5.375788
384 1 1 7.027310 0.734009 5.272997
385 1 1 7.374732 0.797097 5.132577
386 1 1 7.707199 0.711013 5.295228
387 1 1 7.883538 0.573180 5.602321
388 1 1 7.938237 0.199592 5.559426
389 1 1 8.246697 0.026903 5.698822
390 1 1 7.939716 30.899904 5.554006
391 1 1 7.992445 30.764033 5.904946
392 1 1 8.225557 30.857612 6.190081
393 1 1 8.437680 31.043432 6.444786
394 1 1 8.351526 0.191505 6.761237
395 1 1 8.663488 0.041684 6.918188
396 1 1 8.657593 30.706718 6.947519
397 1 1 8.831420 30.871927 7.242290
398 1 1 8.850705 0.090422 7.516518
399 1 1 8.924996 0.462680 7.533979
400 1 1 8.904987 0.841116 7.562011
401 1 1 8.900042 0.982001 7.209127
402 1 1 9.228656 1.043762 7.028576
403 1 1 9.333823 1.396572 6.934423
404 1 1 9.101922 1.649380 7.097856
405 1 1 9.210807 1.992714 6.976753
406 1 1 9.277217 2.236790 7.260330
407 1 1 9.130830 2.314253 7.602340
408 1 1 8.803815 2.140969 7.688564
409 1 1 8.659271 1.805441 7.793100
410 1 1 8.521938 1.451307 7.804437
411 1 1 8.562987 1.152870 8.036062
412 1 1 8.831518 0.928114 8.183629
413 1 1 8.830585 0.758902 8.523873
414 1 1 9.124833 0.530832 8.600050
415 1 1 9.409690 0.542524 8.348814
416 1 1 9.706165 0.348813 8.486578
417 1 1 10.073431 0.445466 8.499745
418 1 1 10.169896 0.414273 8.865971
419 1 1 10.240071 0.341379 9.232252
420 1 1 10.284887 31.029025 9.356778
421 1 1 10.282662 30.954111 8.984242
422 1 1 10.423993 30.741723 8.702610
423 1 1 10.621198 30.472552 8.520793
424 1 1 10.596602 30.099998 8.450092
425 1 1 10.701394 29.745854 8.539540
426 1 1 10.515559 29.635941 8.852246
427 1 1 10.210065 29.731687 9.056956
428 1 1 10.186752 29.775734 9.433674
429 1 1 10.269994 29.980201 9.742970
430 1 1 10.580956 30.190211 9.802957
431 1 1 10.628015 30.468266 10.057654
432 1 1 10.295673 30.493307 10.240197
433 1 1 10.366432 30.452409 10.611304
434 1 1 10.645698 30.216103 10.714113
435 1 1 10.993536 30.367634 10.692969
436 1 1 11.083673 30.680232 10.889330
437 1 1 11.130313 30.886790 11.204859
438 1 1 10.860491 30.933559 11.468316
439 1 1 10.922812 0.178044 11.707849
440 1 1 11.085610 0.521328 11.700548
441 1 1 11.124809 0.715427 11.376219
442 1 1 10.782458 0.818241 11.247281
443 1 1 10.504633 1.045297 11.122145
444 1 1 10.139031 1.146801 11.142928
445 1 1 9.882636 1.047928 11.405389
446 1 1 9.925323 0.798599 11.688961
447 1 1 10.090709 0.460550 11.741596
448 1 1 10.401868 0.527149 11.949311
449 1 1 10.283154 0.616460 12.299069
450 1 1 10.169283 0.881233 12.546714
451 1 1 2.732480 21.761518 20.459335
452 1 1 2.435668 21.652822 20.248414
453 1 1 2.060373 21.711932 20.240650
454 1 1 1.995867 22.078492 20.317282
455 1 1 2.147580 22.416633 20.233353
456 1 1 2.290259 22.593362 20.538000
457 1 1 2.607385 22.772328 20.646639
458 1 1 2.703368 23.043556 20.894878
459 1 1 3.003648 22.978178 21.118389
460 1 1 3.169046 22.913010 21.454242
461 1 1 3.239497 23.203294 21.689129
462 1 1 2.925057 23.369534 21.822889
463 1 1 3.035352 23.710110 21.950336
464 1 1 2.830651 23.862925 22.231663
465 1 1 2.874119 23.972492 22.592919
466 1 1 2.950847 24.221674 22.869363
467 1 1 3.230666 24.459395 22.771433
468 1 1 3.301158 24.725888 23.032990
469 1 1 3.173922 25.056656 22.895864
470 1 1 3.275086 25.239184 22.578296
471 1 1 2.984214 25.432930 22.429112
472 1 1 2.920912 25.457269 22.055213
473 1 1 2.888901 25.256710 21.734041
474 1 1 2.882538 25.437590 21.399913
475 1 1 2.724132 25.782175 21.376070
476 1 1 2.345686 25.816262 21.380204
477 1 1 2.214520 25.699697 21.043147
478 1 1 1.898952 25.657880 20.835618
479 1 1 1.861748 25.365917 20.595256
480 1 1 2.020822 25.028865 20.669360
481 1 1 2.318715 24.809709 20.582009
482 1 1 2.657652 24.743858 20.423309
483 1 1 3.001725 24.834956 20.290211
484 1 1 3.335298 24.670579 20.212053
485 1 1 3.680768 24.617836 20.361281
486 1 1 4.037360 24.505101 20.293955
487 1 1 4.124299 24.173496 20.457906
488 1 1 4.090071 24.232966 20.831659
489 1 1 3.742563 24.324562 20.955142
490 1 1 3.433077 24.114050 20.889542
491 1 1 3.106278 24.252066 21.025755
492 1 1 2.844200 24.419877 21.243826
493 1 1 2.624418 24.226849 21.486387
494 1 1 2.453470 23.919408 21.342662
495 1 1 2.088525 23.840472 21.272061
496 1 1 1.977484 23.488712 21.180765
497 1 1 2.017658 23.436343 20.806542
498 1 1 1.930594 23.119192 20.616186
499 1 1 1.790864 22.839141 20.831700
500 1 1 1.777323 22.463960 20.890491
501 1 1 2.015761 22.388771 21.176662
502 1 1 2.085659 22.015747 21.195815
503 1 1 1.942545 21.879553 21.520422
504 1 1 1.719922 21.699470 21.770241
505 1 1 1.418805 21.530713 21.611340
506 1 1 1.406404 21.228867 21.380830
507 1 1 1.133584 20.982229 21.285233
508 1 1 1.061834 20.782461 20.970043
509 1 1 1.038824 21.006252 20.663795
510 1 1 0.702181 21.074672 20.501345
511 1 1 0.351976 21.183292 20.401554
512 1 1 0.061924 21.411390 20.492334
513 1 1 30.960712 21.454310 20.840922
514 1 1 30.913192 21.078372 20.869427
515 1 1 0.182219 20.882960 20.960637
516 1 1 0.358613 20.552323 21.023601
517 1 1 0.572663 20.275742 21.172213
518 1 1 0.481737 19.907333 21.152034
519 1 1 0.393395 19.539060 21.120872
520 1 1 0.685712 19.318702 21.222818
521 1 1 1.006418 19.173745 21.079516
522 1 1 1.266198 19.449573 21.108397
523 1 1 1.615830 19.301569 21.124280
524 1 1 1.836042 18.998696 21.059669
525 1 1 1.897780 18.706404 20.824820
526 1 1 1.704884 18.389467 20.742710
527 1 1 1.447981 18.112753 20.785487
528 1 1 1.363491 17.874917 21.069557
529 1 1 1.053915 17.880945 21.289844
530 1 1 0.868269 18.022658 21.589600
531 1 1 0.685555 18.074631 21.918711
532 1 1 0.866480 18.220043 22.219579
533 1 1 0.682660 18.318944 22.537115
534 1 1 0.773249 18.452322 22.881213
535 1 1 0.759453 18.585412 23.236877
536 1 1 0.635814 18.501382 23.586237
537 1 1 0.642035 18.825324 23.784789
538 1 1 0.323411 18.889634 23.981621
539 1 1 30.997447 18.976391 23.991986
540 1 1 30.978200 18.903486 24.364429
541 1 1 31.041668 19.039151 24.713667
542 1 1 30.822704 19.004794 25.022331
543 1 1 30.922831 19.121308 25.369893
544 1 1 30.962847 19.463838 25.529492
545 1 1 0.078275 19.186328 25.734474
546 1 1 0.361641 18.953193 25.833225
547 1 1 0.569863 18.763321 26.088161
548 1 1 0.709565 18.944643 26.391485
549 1 1 1.011433 18.890894 26.615955
550 1 1 1.368985 18.990271 26.534218
551 1 1 1.587421 19.076374 26.235434
552 1 1 1.891217 19.251339 26.382046
553 1 1 2.129078 19.328790 26.095997
554 1 1 2.344710 19.119455 25.863443
555 1 1 2.682724 18.954042 25.916219
556 1 1 2.891771 18.967116 26.233281
557 1 1 3.249981 19.093527 26.243552
558 1 1 3.223892 19.451421 26.368576
559 1 1 3.520958 19.635984 26.517198
560 1 1 3.568075 19.966451 26.335618
561 1 1 3.319967 20.252990 26.362780
562 1 1 3.057808 20.517169 26.286080
563 1 1 2.925315 20.852148 26.165106
564 1 1 2.689514 21.047501 26.390129
565 1 1 2.693330 21.264133 26.702308
566 1 1 2.779219 21.626310 26.778798
567 1 1 2.625160 21.890530 27.004306
568 1 1 2.345541 22.142630 26.952739
569 1 1 2.272084 22.512742 26.997695
570 1 1 2.114261 22.830313 27.134225
571 1 1 1.916362 23.153440 27.105507
572 1 1 1.899785 23.443414 27.350538
573 1 1 1.680580 23.521373 27.650991
574 1 1 1.660571 23.725595 27.970824
575 1 1 1.796532 24.075105 27.909531
576 1 1 1.850776 24.451165 27.915559
577 1 1 2.121904 24.602985 27.696834
578 1 1 2.324565 24.875954 27.527080
579 1 1 2.609285 24.723087 27.327164
580 1 1 2.794015 24.395223 27.274440
581 1 1 2.982338 24.155847 27.047209
582 1 1 3.336776 24.021402 27.073636
583 1 1 3.374283 23.812475 27.388823
584 1 1 3.102569 23.840862 27.652954
585 1 1 2.897524 23.708582 27.944260
586 1 1 2.611902 23.464719 27.886373
587 1 1 2.538974 23.170928 27.656659
588 1 1 2.291637 22.945650 27.836865
589 1 1 2.237557 22.649251 28.068432
590 1 1 2.139522 22.566520 28.426126
591 1 1 2.282861 22.624470 28.773250
592 1 1 2.576064 22.667043 29.011200
593 1 1 2.520477 22.675815 29.387010
594 1 1 2.748785 22.458718 29.599483
595 1 1 2.960818 22.702427 29.799603
596 1 1 3.122324 23.025247 29.918358
597 1 1 3.200722 22.991816 30.288677
598 1 1 3.255152 22.660116 30.465914
599 1 1 3.427562 22.642357 30.804084
600 1 1 3.431588 22.693581 0.136740
601 1 1 3.638079 22.777666 0.444459
602 1 1 3.710713 22.942500 0.779055
603 1 1 3.714342 22.735922 1.097978
604 1 1 3.991098 22.476501 1.120482
605 1 1 4.125104 22.166078 1.293918
606 1 1 4.427064 22.287628 1.489994
607 1 1 4.348714 22.473844 1.811840
608 1 1 4.275088 22.680327 2.122233
609 1 1 4.031190 22.505548 2.355400
610 1 1 4.066252 22.128724 2.321135
611 1 1 3.788027 21.977057 2.111401
612 1 1 3.594560 22.268105 1.962197
613 1 1 3.649219 22.630388 1.861385
614 1 1 3.553166 22.831609 2.169092
615 1 1 3.452468 23.178141 2.050031
616 1 1 3.090194 23.139844 1.941905
617 1 1 2.776321 22.933244 1.998472
618 1 1 2.700195 22.587453 2.136434
619 1 1 2.322139 22.566578 2.168657
620 1 1 1.976019 22.609802 2.319431
621 1 1 1.792783 22.901485 2.158977
622 1 1 1.541543 23.100078 1.954432
623 1 1 1.164411 23.056367 1.938280
624 1 1 0.920550 23.347794 1.939854
625 1 1 1.033138 23.615953 2.184425
626 1 1 1.135447 23.959962 2.309285
627 1 1 0.866795 24.190204 2.447903
628 1 1 0.546434 24.265880 2.637750
629 1 1 0.643205 24.388699 2.984089
630 1 1 0.692388 24.131611 3.259565
631 1 1 0.574094 23.852688 3.488930
632 1 1 0.493495 23.752640 3.846553
633 1 1 0.749428 23.500314 3.969963
634 1 1 0.752686 23.181655 3.762971
635 1 1 0.623112 22.833361 3.842355
636 1 1 0.374664 22.593111 3.684388
637 1 1 0.081449 22.366931 3.599135
638 1 1 31.018084 22.132057 3.320320
639 1 1 30.974780 22.337797 3.636857
640 1 1 30.633704 22.275597 3.792415
641 1 1 30.285130 22.228844 3.648504
642 1 1 30.089706 22.229647 3.322607
643 1 1 29.747512 22.367584 3.231631
644 1 1 29.397281 22.222167 3.255952
645 1 1 29.092595 22.291482 3.039706
646 1 1 28.934992 22.594297 2.872781
647 1 1 28.984591 22.571684 2.496711
648 1 1 29.065678 22.674958 2.140117
649 1 1 29.067476 22.724232 1.763329
650 1 1 29.161654 22.389337 1.610437
651 1 1 29.323431 22.091078 1.781521
652 1 1 29.045368 21.888120 1.942421
653 1 1 28.837383 21.584571 1.847551
654 1 1 28.745411 21.388491 1.535311
655 1 1 28.412682 21.215235 1.595925
656 1 1 28.047589 21.181685 1.695833
657 1 1 27.838628 21.435534 1.505319
658 1 1 27.800721 21.703459 1.238524
659 1 1 28.059534 21.815425 0.983809
660 1 1 28.264997 22.084294 1.156711
661 1 1 28.261677 22.394526 0.937292
662 1 1 28.254080 22.648919 0.655110
663 1 1 28.071778 22.963657 0.545082
664 1 1 28.165938 23.275568 0.740647
665 1 1 27.870469 23.501346 0.818892
666 1 1 27.913485 23.878462 0.837142
667 1 1 27.866675 24.218865 0.999419
668 1 1 28.151963 24.421434 1.147664
669 1 1 28.506446 24.507186 1.040947
670 1 1 28.682570 24.303638 0.772715
671 1 1 28.960384 24.058991 0.858547
672 1 1 28.843389 23.742622 1.033542
673 1 1 29.121578 23.502050 1.129125
674 1 1 29.022788 23.157153 1.254372
675 1 1 28.951564 22.887842 0.995917
676 1 1 28.993866 22.986899 0.631503
677 1 1 29.279462 23.225407 0.554374
678 1 1 29.420863 23.563187 0.452833
679 1 1 29.732575 23.701593 0.285264
680 1 1 29.892184 23.924975 0.547991
681 1 1 30.238146 23.913344 0.704754
682 1 1 30.373132 23.773606 1.031330
683 1 1 30.381650 23.796843 1.410523
684 1 1 30.735409 23.710920 1.519483
685 1 1 30.953161 23.400396 1.495837
686 1 1 0.168394 23.560913 1.268883
687 1 1 0.425741 23.573233 0.989562
688 1 1 0.381939 23.246629 0.800324
689 1 1 0.539113 23.019575 0.539282
690 1 1 0.835821 23.195472 0.379832
691 1 1 0.821941 23.572903 0.337962
692 1 1 0.668554 23.905509 0.439185
693 1 1 0.834507 24.167623 0.219742
694 1 1 0.630789 24.468256 0.107855
695 1 1 0.463868 24.758883 30.972618
696 1 1 0.466350 24.383633 30.912776
697 1 1 0.298974 24.250735 30.598573
698 1 1 0.060702 24.126229 30.330012
699 1 1 0.016919 23.748766 30.332171
700 1 1 30.957545 23.813940 29.972315
701 1 1 30.982061 23.835257 29.593706
702 1 1 31.041581 24.020230 29.267145
703 1 1 30.742441 24.003636 29.033393
704 1 1 0.038738 24.147896 28.944586
705 1 1 0.180634 24.095982 29.293256
706 1 1 0.350439 24.355746 29.512548
707 1 1 0.163281 24.629620 29.697926
708 1 1 0.289795 24.977344 29.784427
709 1 1 0.497345 25.186957 30.023980
710 1 1 0.396802 25.553331 30.031854
711 1 1 0.619028 25.840156 29.918951
712 1 1 0.878467 25.687656 29.686927
713 1 1 1.062302 25.964128 29.502081
714 1 1 1.162054 25.940918 29.136143
715 1 1 1.075024 25.590558 29.017511
716 1 1 0.863017 25.279505 28.965561
717 1 1 1.006879 25.059862 28.690860
718 1 1 1.193861 24.827290 28.455599
719 1 1 1.060292 24.738469 28.111113
720 1 1 1.078876 24.601482 27.757152
721 1 1 0.989736 24.353788 27.483105
722 1 1 1.240172 24.068912 27.460139
723 1 1 1.534417 24.189890 27.252331
724 1 1 1.914179 24.203199 27.250333
725 1 1 2.265988 24.086556 27.334147
726 1 1 2.447196 23.766515 27.238555
727 1 1 2.472198 23.559643 26.920783
728 1 1 2.737850 23.502441 26.655158
729 1 1 3.116559 23.524561 26.677287
730 1 1 3.325145 23.316512 26.917303
731 1 1 3.162881 23.239685 27.252218
732 1 1 3.254527 23.021791 27.549746
733 1 1 3.313958 22.682788 27.710821
734 1 1 3.593334 22.683894 27.968401
735 1 1 3.932630 22.668109 28.138781
736 1 1 4.288257 22.588548 28.031082
737 1 1 4.367328 22.459617 27.682479
738 1 1 4.725229 22.360274 27.602245
739 1 1 5.060552 22.521529 27.679418
740 1 1 5.334112 22.623488 27.436171
741 1 1 5.516660 22.895339 27.243367
742 1 1 5.832518 23.047484 27.389949
743 1 1 6.150378 22.887704 27.256400
744 1 1 6.194841 22.561706 27.066273
745 1 1 5.990722 22.332501 26.842218
746 1 1 5.613844 22.366278 26.807266
747 1 1 5.300561 22.190607 26.683194
748 1 1 5.162933 22.229552 26.331140
749 1 1 4.832455 22.354527 26.191264
750 1 1 4.550423 22.609092 26.198639
751 1 1 4.302362 22.734256 26.457868
752 1 1 4.189690 22.771522 26.818861
753 1 1 3.892807 22.857308 27.039998
754 1 1 3.665752 22.561325 27.112388
755 1 1 3.789141 22.208682 27.181800
756 1 1 3.679987 21.961948 27.449396
757 1 1 3.496172 21.861670 27.766502
758 1 1 3.724908 21.745921 28.047005
759 1 1 3.747674 21.489396 28.326427
760 1 1 3.698699 21.115931 28.376685
761 1 1 3.346948 20.980680 28.425456
762 1 1 3.201262 20.697925 28.633362
763 1 1 2.863935 20.576286 28.759117
764 1 1 2.695307 20.880712 28.911726
765 1 1 2.765092 21.008093 29.262873
766 1 1 2.617326 21.193652 29.559746
767 1 1 2.841308 21.287338 29.852072
768 1 1 2.978050 21.367171 30.197511
769 1 1 3.256795 21.623875 30.169149
770 1 1 3.605417 21.646231 30.318690
771 1 1 3.776062 21.828612 30.605076
772 1 1 3.620839 21.709777 30.930935
773 1 1 3.740716 21.719666 0.247541
774 1 1 3.484516 21.481503 0.396000
775 1 1 3.244511 21.478373 0.690598
776 1 1 3.319030 21.261050 0.993282
777 1 1 3.239975 21.373874 1.347430
778 1 1 3.282281 21.749672 1.384657
779 1 1 3.277902 22.127761 1.422466
780 1 1 3.085009 22.411554 1.585726
781 1 1 2.815108 22.636788 1.441424
782 1 1 2.530857 22.695956 1.196270
783 1 1 2.442366 22.373992 1.014863
784 1 1 2.748735 22.165803 0.930037
785 1 1 2.711598 21.805800 1.045877
786 1 1 2.627694 21.467349 1.196909
787 1 1 2.339334 21.439787 1.442854
788 1 1 2.069634 21.650797 1.607586
789 1 1 1.737689 21.545062 1.759350
790 1 1 1.521794 21.717632 2.020137
791 1 1 1.301970 22.015350 1.933873
792 1 1 1.318726 22.249286 2.232860
793 1 1 1.345006 22.388521 2.585455
794 1 1 1.328181 22.273230 2.947152
795 1 1 1.091595 22.001286 3.067457
796 1 1 1.140078 21.665111 2.897057
797 1 1 1.426539 21.704376 2.650484
798 1 1 1.741587 21.563994 2.809976
799 1 1 1.899489 21.383633 3.104826
800 1 1 2.273252 21.315763 3.114566
801 1 1 2.459101 21.424041 3.427833
802 1 1 2.632899 21.215349 3.693619
803 1 1 2.412717 21.055185 3.958698
804 1 1 2.362571 20.800564 4.236283
805 1 1 2.423933 20.634449 4.572499
806 1 1 2.206923 20.591472 4.881464
807 1 1 1.828451 20.574789 4.851788
808 1 1 1.557912 20.807325 4.982692
809 1 1 1.184652 20.736318 4.976821
810 1 1 0.979079 20.820944 5.285007
811 1 1 0.866348 21.127418 5.479339
812 1 1 0.641188 21.268548 5.750974
813 1 1 0.394319 21.551836 5.807576
814 1 1 0.028725 21.448198 5.808099
815 1 1 30.819640 21.422803 6.090547
816 1 1 30.836196 21.604907 6.423659
817 1 1 30.675114 21.714786 6.749817
818 1 1 30.476622 21.624213 7.060940