LAMMPS data file for polymer system

22500 atoms
22450 bonds

1 atom types
1 bond types

0.0 31.04385442133693 xlo xhi
0.0 31.04385442133693 ylo yhi
0.0 31.04385442133693 zlo zhi

Masses

1 5.65487

Atoms

1 1 1 9.248092 15.476307 7.608719
2 1 1 8.994769 15.503771 7.890629
3 1 1 8.743555 15.276631 8.062963
4 1 1 8.745900 15.019683 8.342914
5 1 1 8.430092 14.808902 8.327526
6 1 1 8.097386 14.686344 8.464223
7 1 1 8.068251 14.783065 8.830551
8 1 1 8.258344 14.795428 9.159355
9 1 1 8.047358 14.942706 9.438988
10 1 1 7.791949 15.222936 9.413750
11 1 1 7.589583 15.420968 9.160311
12 1 1 7.773317 15.458133 8.829765
13 1 1 7.750861 15.728982 8.564177
14 1 1 7.481569 15.671639 8.302273
15 1 1 7.500515 15.369389 8.072740
16 1 1 7.244750 15.300303 7.800322
17 1 1 7.173086 15.344205 7.429732
18 1 1 7.351516 15.410351 7.100814
19 1 1 7.418585 15.763660 6.978036
20 1 1 7.644009 15.801496 6.674470
21 1 1 7.475749 15.608506 6.393679
22 1 1 7.368523 15.477552 6.053453
23 1 1 7.133833 15.683210 5.836601
24 1 1 6.869666 15.457266 5.683091
25 1 1 6.511064 15.335744 5.715298
26 1 1 6.133933 15.367635 5.749286
27 1 1 5.862608 15.574116 5.917062
28 1 1 5.482791 15.566266 5.925870
29 1 1 5.278955 15.724597 6.204764
30 1 1 5.027522 15.689123 6.487471
31 1 1 4.685549 15.633817 6.643661
32 1 1 4.751231 15.543850 7.006967
33 1 1 4.795388 15.639443 7.372087
34 1 1 4.849454 15.524784 7.730319
35 1 1 4.998382 15.181994 7.798990
36 1 1 5.368587 15.249220 7.852179
37 1 1 5.555022 15.394695 8.149633
38 1 1 5.586808 15.630196 8.446162
39 1 1 5.952667 15.732702 8.452437
40 1 1 6.095944 16.020542 8.249904
41 1 1 6.276438 16.342914 8.338778
42 1 1 6.204046 16.694363 8.463850
43 1 1 6.235716 17.050227 8.334399
44 1 1 6.267090 17.402154 8.194530
45 1 1 6.462124 17.662297 7.997838
46 1 1 6.499218 17.899164 7.703019
47 1 1 6.679700 17.704740 7.430943
48 1 1 6.791965 17.342571 7.456045
49 1 1 6.932791 17.233509 7.791713
50 1 1 7.117323 17.439563 8.052270
51 1 1 7.376271 17.253916 8.259347
52 1 1 7.681438 17.027483 8.260525
53 1 1 7.812240 16.693284 8.135618
54 1 1 7.563682 16.491418 7.930998
55 1 1 7.325154 16.220617 7.811955
56 1 1 7.411195 15.946150 7.563631
57 1 1 7.781048 15.881409 7.505175
58 1 1 7.992249 15.927343 7.817720
59 1 1 8.243875 15.642590 7.817422
60 1 1 8.393157 15.503665 7.496775
61 1 1 8.554214 15.215200 7.309029
62 1 1 8.507877 14.952995 7.037918
63 1 1 8.337490 14.982902 6.699578
64 1 1 8.125288 14.918048 6.391091
65 1 1 7.785505 15.027278 6.260644
66 1 1 7.576228 14.759099 6.091282
67 1 1 7.625730 14.449355 6.305776
68 1 1 7.645110 14.206415 6.597332
69 1 1 7.920586 14.015464 6.776359
70 1 1 8.283536 13.922950 6.712260
71 1 1 8.425576 13.762196 6.398600
72 1 1 8.796584 13.816022 6.336502
73 1 1 9.153837 13.867895 6.455158
74 1 1 9.386280 14.165681 6.413998
75 1 1 9.566155 14.281002 6.099760
76 1 1 9.773084 14.245930 5.782979
77 1 1 9.975218 14.286238 5.463734
78 1 1 10.295096 14.124270 5.337861
79 1 1 10.234126 13.830229 5.105003
80 1 1 10.321550 13.520494 4.902961
81 1 1 10.256927 13.264211 4.629935
82 1 1 10.471918 13.376295 4.337333
83 1 1 10.431429 13.677940 4.109802
84 1 1 10.592179 13.753543 3.773879
85 1 1 10.705025 13.826044 3.418338
86 1 1 10.718202 13.619281 3.099786
87 1 1 10.413461 13.500114 2.906570
88 1 1 10.262989 13.487476 2.557861
89 1 1 10.204194 13.834821 2.415402
90 1 1 10.478093 13.881860 2.156235
91 1 1 10.419556 14.175402 1.922127
92 1 1 10.452187 14.295235 1.562996
93 1 1 10.202413 14.551324 1.434812
94 1 1 9.894285 14.448907 1.237409
95 1 1 9.571553 14.256178 1.181730
96 1 1 9.274270 14.129273 0.981936
97 1 1 9.258866 14.311120 0.648627
98 1 1 9.180196 14.041440 0.392729
99 1 1 8.933834 14.186988 0.142685
100 1 1 8.798568 14.039039 30.863717
101 1 1 8.744238 13.675674 30.960741
102 1 1 8.636507 13.327922 30.851825
103 1 1 8.525789 13.400015 0.164263
104 1 1 8.419839 13.318064 0.519873
105 1 1 8.238341 13.286458 0.852228
106 1 1 7.935856 13.073676 0.939558
107 1 1 7.933710 12.750467 0.739731
108 1 1 7.952262 12.376574 0.674459
109 1 1 7.966976 12.096203 0.930536
110 1 1 8.276645 11.947333 1.092840
111 1 1 8.457889 11.613341 1.092712
112 1 1 8.783067 11.554231 0.905188
113 1 1 8.847997 11.553776 0.530777
114 1 1 9.223585 11.538858 0.474998
115 1 1 9.488454 11.277137 0.399190
116 1 1 9.706689 11.123716 0.669810
117 1 1 9.901284 10.797943 0.649681
118 1 1 9.833985 10.526148 0.906582
119 1 1 9.984462 10.555053 1.254319
120 1 1 9.848299 10.856789 1.440908
121 1 1 9.736996 11.202572 1.329345
122 1 1 9.847580 11.515901 1.513725
123 1 1 9.671015 11.814698 1.668466
124 1 1 9.573892 12.178925 1.716489
125 1 1 9.792605 12.485021 1.770060
126 1 1 9.798237 12.863122 1.807584
127 1 1 9.834081 13.073078 1.492888
128 1 1 9.524388 13.291803 1.467394
129 1 1 9.213495 13.270012 1.684812
130 1 1 8.998955 13.583465 1.695754
131 1 1 8.880928 13.807801 1.412658
132 1 1 8.570424 13.664395 1.247061
133 1 1 8.396858 13.895106 0.999983
134 1 1 8.126411 14.113574 1.153379
135 1 1 7.798956 13.962354 1.033771
136 1 1 7.514095 13.815601 1.238019
137 1 1 7.457705 13.710812 1.598906
138 1 1 7.695228 13.431584 1.698977
139 1 1 7.948382 13.151060 1.739223
140 1 1 8.243344 13.005883 1.929803
141 1 1 8.487242 12.734402 1.823917
142 1 1 8.652786 12.825292 1.494169
143 1 1 8.853004 12.628027 1.238435
144 1 1 9.078342 12.323991 1.204012
145 1 1 8.995564 11.986743 1.358323
146 1 1 8.797123 11.855838 1.654777
147 1 1 8.680361 11.832585 2.015646
148 1 1 8.972839 11.678290 2.202862
149 1 1 9.161899 11.925241 2.421200
150 1 1 9.106278 12.284500 2.531833
151 1 1 9.403568 12.487821 2.652990
152 1 1 9.601938 12.549040 2.971269
153 1 1 9.978492 12.551316 2.920263
154 1 1 10.036507 12.454431 2.557430
155 1 1 10.134573 12.267764 2.241300
156 1 1 10.126713 11.923878 2.079805
157 1 1 10.480010 11.786157 2.055023
158 1 1 10.500722 11.426553 1.933960
159 1 1 10.518440 11.451105 1.555169
160 1 1 10.525692 11.751931 1.323110
161 1 1 10.628314 11.803085 0.960823
162 1 1 10.798902 11.789880 0.621521
163 1 1 11.155526 11.659011 0.611905
164 1 1 11.515578 11.693819 0.728314
165 1 1 11.783784 11.429367 0.778620
166 1 1 11.712598 11.080147 0.910445
167 1 1 11.394305 10.927755 0.769498
168 1 1 11.033033 10.812381 0.793404
169 1 1 10.749181 10.595747 0.923395
170 1 1 10.609690 10.327149 1.153172
171 1 1 10.763403 10.057668 1.372608
172 1 1 10.820978 9.882939 1.705106
173 1 1 10.818947 9.608246 1.967669
174 1 1 10.733624 9.249046 2.057645
175 1 1 10.645528 9.008482 1.776989
176 1 1 10.488375 8.665025 1.735270
177 1 1 10.139199 8.581126 1.611023
178 1 1 9.973491 8.316262 1.827329
179 1 1 9.889673 7.948659 1.874681
180 1 1 9.823979 7.728837 2.177604
181 1 1 9.542660 7.494588 2.075686
182 1 1 9.598760 7.138662 1.954983
183 1 1 9.582006 6.810055 2.145079
184 1 1 9.245052 6.713815 2.292048
185 1 1 9.085282 6.480929 2.037809
186 1 1 9.170004 6.110577 2.029946
187 1 1 9.013527 5.856318 1.794856
188 1 1 8.815118 5.688848 1.517390
189 1 1 8.542346 5.441743 1.422866
190 1 1 8.233500 5.418550 1.202692
191 1 1 8.359280 5.434531 0.844469
192 1 1 8.606383 5.477220 0.558956
193 1 1 8.633665 5.332734 0.208557
194 1 1 8.783443 5.114389 30.979846
195 1 1 9.023156 5.409240 30.980588
196 1 1 9.125751 5.634922 30.692593
197 1 1 9.257375 5.635571 0.005214
198 1 1 9.566931 5.633556 0.225602
199 1 1 9.753224 5.694060 0.551231
200 1 1 10.126373 5.763626 0.533331
201 1 1 10.487050 5.813577 0.642039
202 1 1 10.650570 5.730054 0.974733
203 1 1 10.653034 5.559605 1.314352
204 1 1 10.634825 5.633838 1.686586
205 1 1 10.491040 5.842923 1.969445
206 1 1 10.556082 6.213765 2.020876
207 1 1 10.280642 6.475201 2.007301
208 1 1 10.373409 6.715775 1.728162
209 1 1 10.750417 6.763347 1.726842
210 1 1 11.094032 6.915383 1.783535
211 1 1 11.269619 6.906067 2.120406
212 1 1 11.630515 6.981199 2.212650
213 1 1 11.965188 7.154966 2.165752
214 1 1 12.310807 7.242869 2.296978
215 1 1 12.668230 7.314207 2.189459
216 1 1 12.983546 7.200507 2.368479
217 1 1 12.890504 7.137845 2.731544
218 1 1 12.886045 7.289822 3.079802
219 1 1 13.145760 7.561102 3.137724
220 1 1 13.192497 7.932511 3.203080
221 1 1 13.479451 8.034416 3.430395
222 1 1 13.811350 8.063480 3.613148
223 1 1 13.869001 8.253033 3.937410
224 1 1 13.940612 8.609592 4.047581
225 1 1 13.778576 8.945375 3.974133
226 1 1 13.955293 9.256981 4.100912
227 1 1 14.203302 9.430580 3.871228
228 1 1 14.515085 9.608893 3.747149
229 1 1 14.891812 9.630364 3.792047
230 1 1 15.119656 9.831734 4.019943
231 1 1 15.467910 9.954293 4.109938
232 1 1 15.539342 10.324581 4.156674
233 1 1 15.818502 10.537394 4.011139
234 1 1 15.916539 10.435742 3.658356
235 1 1 16.114734 10.723607 3.509185
236 1 1 15.983192 11.072930 3.437980
237 1 1 15.878477 11.405557 3.287003
238 1 1 15.917771 11.560577 2.942293
239 1 1 15.805272 11.887385 2.784366
240 1 1 15.673325 11.803430 2.438041
241 1 1 15.573344 12.037999 2.156295
242 1 1 15.642071 11.924211 1.800305
243 1 1 15.646185 11.584952 1.629172
244 1 1 15.590796 11.366697 1.323072
245 1 1 15.882418 11.375020 1.079583
246 1 1 15.909786 11.210406 0.738184
247 1 1 15.973229 10.849356 0.638093
248 1 1 16.339342 10.748958 0.621323
249 1 1 16.537281 11.031729 0.462387
250 1 1 16.876871 11.163556 0.570553
251 1 1 17.134846 10.888668 0.618360
252 1 1 17.475410 11.049989 0.667265
253 1 1 17.686548 11.142653 0.969316
254 1 1 18.063059 11.114242 0.926514
255 1 1 18.297286 10.815643 0.907114
256 1 1 18.577518 10.629278 1.083575
257 1 1 18.712865 10.397674 1.352723
258 1 1 18.893659 10.064214 1.375492
259 1 1 19.188437 10.002285 1.607162
260 1 1 19.541642 9.862463 1.597390
261 1 1 19.911344 9.779624 1.626681
262 1 1 20.264199 9.879986 1.527581
263 1 1 20.244655 10.212500 1.344680
264 1 1 20.393534 10.560357 1.309602
265 1 1 20.189007 10.874168 1.245641
266 1 1 20.314785 11.175572 1.439896
267 1 1 20.047570 11.274508 1.691307
268 1 1 19.859213 11.604352 1.680129
269 1 1 19.567715 11.607313 1.923891
270 1 1 19.295645 11.369204 1.806921
271 1 1 19.043763 11.085304 1.788061
272 1 1 18.961406 10.767245 1.978997
273 1 1 18.675912 10.780313 2.229441
274 1 1 18.418972 11.022266 2.088583
275 1 1 18.341490 11.394161 2.098109
276 1 1 18.108486 11.646250 2.261082
277 1 1 18.138738 11.998497 2.121774
278 1 1 18.029640 12.175044 1.803452
279 1 1 17.919221 12.531503 1.875180
280 1 1 17.603260 12.631728 1.689374
281 1 1 17.316144 12.551817 1.453623
282 1 1 17.225483 12.633264 1.093697
283 1 1 17.540330 12.641893 0.881101
284 1 1 17.781706 12.931111 0.931009
285 1 1 18.135691 12.856115 0.814946
286 1 1 18.324347 12.692560 1.101405
287 1 1 18.558582 12.727963 1.398525
288 1 1 18.687774 12.895747 1.714053
289 1 1 18.977743 12.726975 1.892475
290 1 1 19.129991 12.532076 2.180980
291 1 1 19.489116 12.416789 2.134743
292 1 1 19.838325 12.430725 2.283937
293 1 1 20.088001 12.395561 2.568235
294 1 1 20.459796 12.344735 2.508359
295 1 1 20.730830 12.280322 2.766799
296 1 1 21.048004 12.435889 2.906797
297 1 1 21.075305 12.768166 3.089132
298 1 1 21.117889 12.994645 3.391282
299 1 1 21.326440 13.224159 3.610894
300 1 1 21.704683 13.195720 3.588015
301 1 1 21.886119 13.021942 3.302915
302 1 1 21.885566 12.847979 2.965074
303 1 1 21.813198 12.924629 2.599989
304 1 1 21.931142 13.218917 2.390504
305 1 1 22.228413 13.180530 2.156932
306 1 1 22.175983 13.213661 1.782027
307 1 1 21.983966 13.194077 1.454696
308 1 1 21.829133 13.445756 1.215773
309 1 1 21.980237 13.763183 1.071524
310 1 1 21.774997 14.057415 0.946207
311 1 1 21.843847 14.145895 0.583122
312 1 1 21.873809 14.506636 0.467501
313 1 1 21.942916 14.681902 0.137492
314 1 1 21.636280 14.769409 30.974665
315 1 1 21.267341 14.811015 30.893714
316 1 1 21.246486 15.124227 0.064016
317 1 1 21.159470 15.443527 30.921118
318 1 1 21.002375 15.779015 30.836450
319 1 1 21.272645 16.003748 30.692057
320 1 1 21.436213 16.332444 30.594057
321 1 1 21.256002 16.544695 30.335459
322 1 1 21.399408 16.896577 30.331760
323 1 1 21.477617 17.098100 30.644285
324 1 1 21.583828 17.445980 30.534291
325 1 1 21.401373 17.742923 30.685734
326 1 1 21.519152 17.948722 30.982676
327 1 1 21.638021 17.869041 0.290846
328 1 1 21.907512 18.019352 0.512614
329 1 1 21.861441 18.214696 0.835287
330 1 1 21.581203 18.461253 0.764040
331 1 1 21.252109 18.496475 0.950740
332 1 1 21.065446 18.279564 1.200753
333 1 1 21.124262 18.287474 1.576090
334 1 1 20.985203 18.058578 1.845662
335 1 1 21.059124 17.694403 1.925112
336 1 1 20.912845 17.444596 2.171280
337 1 1 20.784556 17.136469 1.989623
338 1 1 20.566481 16.872553 1.824723
339 1 1 20.645691 16.631743 1.541639
340 1 1 20.913880 16.373112 1.616366
341 1 1 21.195613 16.435225 1.369042
342 1 1 21.480685 16.686384 1.376279
343 1 1 21.428098 17.035649 1.516453
344 1 1 21.375256 17.408089 1.462641
345 1 1 21.561111 17.732376 1.531173
346 1 1 21.865724 17.911883 1.670413
347 1 1 21.938744 18.243112 1.499078
348 1 1 21.936584 18.611614 1.591822
349 1 1 22.088405 18.941610 1.703415
350 1 1 22.310767 19.171478 1.498195
351 1 1 22.596992 19.263807 1.730469
352 1 1 22.956582 19.141869 1.715426
353 1 1 23.109641 19.273841 1.393625
354 1 1 23.290823 19.596447 1.307029
355 1 1 23.228813 19.752883 0.966319
356 1 1 22.979512 19.902538 0.721672
357 1 1 22.705814 20.159480 0.662767
358 1 1 22.485260 20.423248 0.500958
359 1 1 22.578652 20.482642 0.137433
360 1 1 22.614124 20.291848 30.854578
361 1 1 22.276379 20.426605 30.964890
362 1 1 22.228493 20.797829 30.899314
363 1 1 22.437219 21.102142 30.990016
364 1 1 22.590731 21.447813 30.953332
365 1 1 22.750917 21.476248 30.609920
366 1 1 22.826271 21.180236 30.383870
367 1 1 22.857201 21.036658 30.033401
368 1 1 23.041006 21.138581 29.716814
369 1 1 22.883535 21.464857 29.602152
370 1 1 23.126367 21.735867 29.711638
371 1 1 23.101316 21.949397 30.024970
372 1 1 23.188415 22.203513 30.293743
373 1 1 23.029987 22.215744 30.638925
374 1 1 23.237772 22.363617 30.920632
375 1 1 23.600000 22.248772 30.921895
376 1 1 23.845726 22.161485 0.154446
377 1 1 23.843840 22.506992 0.312627
378 1 1 23.858532 22.886515 0.300509
379 1 1 24.029510 22.806201 31.014642
380 1 1 23.773687 22.810620 30.733688
381 1 1 23.668270 22.656680 30.402644
382 1 1 23.908230 22.567583 30.121786
383 1 1 23.916905 22.267359 29.888998
384 1 1 24.071126 21.950937 29.745845
385 1 1 23.804682 21.769376 29.544740
386 1 1 23.737996 21.473502 29.315804
387 1 1 23.975418 21.182620 29.374274
388 1 1 24.336572 21.275464 29.447402
389 1 1 24.478968 21.584606 29.278421
390 1 1 24.365192 21.936404 29.190710
391 1 1 24.226063 22.151125 28.909751
392 1 1 24.299699 22.368801 28.607104
393 1 1 24.186150 22.692880 28.444379
394 1 1 24.300731 22.990063 28.651631
395 1 1 24.430463 23.341132 28.717358
396 1 1 24.308911 23.654559 28.540190
397 1 1 24.602522 23.854877 28.405783
398 1 1 24.652013 24.199914 28.557112
399 1 1 24.910447 24.428458 28.716420
400 1 1 25.148312 24.522621 28.435433
401 1 1 25.356226 24.216063 28.350617
402 1 1 25.580554 23.911921 28.390301
403 1 1 25.375551 23.593126 28.417575
404 1 1 25.136081 23.608070 28.122904
405 1 1 25.019553 23.897174 27.905556
406 1 1 24.901806 24.124081 27.624399
407 1 1 24.837541 24.052587 27.256760
408 1 1 24.698007 24.208186 26.939397
409 1 1 24.489489 24.523074 26.897374
410 1 1 24.149735 24.535165 26.727606
411 1 1 23.809337 24.407834 26.616628
412 1 1 23.705155 24.045875 26.566311
413 1 1 23.794057 23.677454 26.538705
414 1 1 23.616654 23.387432 26.708458
415 1 1 23.770711 23.054653 26.608835
416 1 1 23.649283 22.702507 26.533679
417 1 1 23.729471 22.366086 26.691129
418 1 1 24.076558 22.360972 26.845739
419 1 1 24.135481 22.601206 27.134210
420 1 1 23.980820 22.861838 27.363450
421 1 1 23.828603 23.190808 27.477508
422 1 1 23.475138 23.251285 27.603225
423 1 1 23.245926 22.988540 27.754310
424 1 1 23.165281 22.729932 28.020803
425 1 1 23.347813 22.415559 27.910117
426 1 1 23.365722 22.315348 27.544006
427 1 1 23.165670 22.094016 27.308651
428 1 1 22.875441 22.082424 27.063636
429 1 1 22.696871 22.414873 27.019022
430 1 1 22.713140 22.748406 27.200381
431 1 1 22.432202 22.993069 27.125454
432 1 1 22.265476 23.319265 27.024467
433 1 1 22.090598 23.440897 26.709787
434 1 1 22.043483 23.670657 26.410805
435 1 1 22.145053 23.886990 26.115367
436 1 1 22.140789 24.193150 25.890316
437 1 1 22.247614 24.518013 25.724628
438 1 1 22.618466 24.597391 25.748459
439 1 1 22.661235 24.963574 25.840550
440 1 1 22.386091 25.222158 25.797775
441 1 1 22.136523 25.258859 25.513577
442 1 1 21.783183 25.329559 25.392942
443 1 1 21.512084 25.542289 25.553103
444 1 1 21.549503 25.675707 25.906938
445 1 1 21.724077 25.417144 26.123891
446 1 1 21.591494 25.278519 26.451922
447 1 1 21.711583 24.946581 26.592620
448 1 1 21.855733 24.649658 26.404318
449 1 1 21.679449 24.594985 26.072151
450 1 1 21.606138 24.684335 25.710153
451 1 1 17.831557 10.118208 14.692713
452 1 1 18.084822 10.265424 14.450671
453 1 1 18.307211 10.443556 14.199251
454 1 1 18.505616 10.743570 14.321839
455 1 1 18.776270 10.915538 14.525734
456 1 1 18.913669 11.265131 14.468229
457 1 1 19.040140 11.523174 14.219596
458 1 1 19.038911 11.718959 13.893917
459 1 1 19.057478 12.042764 13.695914
460 1 1 19.385327 12.210045 13.790422
461 1 1 19.710820 12.180996 13.984357
462 1 1 19.674540 12.263588 14.353494
463 1 1 19.789476 12.559400 14.562503
464 1 1 20.040870 12.834132 14.638159
465 1 1 19.995881 13.177245 14.795160
466 1 1 20.001486 13.555983 14.825595
467 1 1 20.188355 13.886189 14.804523
468 1 1 20.406016 14.196262 14.834153
469 1 1 20.754980 14.336712 14.887984
470 1 1 20.985813 14.086368 15.056638
471 1 1 20.952045 13.715737 14.979875
472 1 1 21.080672 13.363601 15.041964
473 1 1 21.388900 13.217694 14.874313
474 1 1 21.443829 12.885399 14.698351
475 1 1 21.358385 12.931155 14.330920
476 1 1 21.181214 13.061208 14.020926
477 1 1 21.200583 13.398243 13.846477
478 1 1 21.188883 13.777213 13.871882
479 1 1 21.160896 14.135199 13.747532
480 1 1 20.873218 14.358873 13.855285
481 1 1 20.885958 14.623088 14.128100
482 1 1 20.531435 14.722584 14.221981
483 1 1 20.289280 14.431004 14.194733
484 1 1 19.958393 14.312113 14.050584
485 1 1 19.778541 14.000310 14.172369
486 1 1 19.911838 13.644456 14.172897
487 1 1 20.290935 13.659744 14.194161
488 1 1 20.659122 13.577874 14.240374
489 1 1 20.693311 13.314503 14.512158
490 1 1 20.608039 13.028367 14.747222
491 1 1 20.567918 12.972788 15.120988
492 1 1 20.314369 12.706746 15.217604
493 1 1 20.206689 12.344858 15.174686
494 1 1 19.947643 12.264401 15.440811
495 1 1 19.692430 11.983567 15.460777
496 1 1 19.438898 11.845527 15.213661
497 1 1 19.274777 12.009586 14.912748
498 1 1 19.088427 12.340575 14.923715
499 1 1 18.909713 12.538903 14.653294
500 1 1 18.583868 12.678962 14.516882
501 1 1 18.231079 12.551222 14.577068
502 1 1 18.227229 12.410858 14.930173
503 1 1 18.483375 12.409390 15.210864
504 1 1 18.376324 12.637126 15.495603
505 1 1 18.023337 12.767821 15.547748
506 1 1 17.669620 12.883869 15.471482
507 1 1 17.436124 12.748692 15.203887
508 1 1 17.307555 12.392500 15.235474
509 1 1 17.312392 12.066954 15.039524
510 1 1 17.510641 12.087132 14.715966
511 1 1 17.669009 11.748369 14.648443
512 1 1 17.497438 11.591975 14.347604
513 1 1 17.602173 11.723946 14.006995
514 1 1 17.886591 11.727014 13.755009
515 1 1 18.248862 11.813365 13.679489
516 1 1 18.313393 12.163873 13.811322
517 1 1 18.600804 12.242537 14.047134
518 1 1 18.740678 12.572117 13.919808
519 1 1 18.457103 12.823429 13.891041
520 1 1 18.195667 12.739675 13.628292
521 1 1 17.816644 12.750596 13.603349
522 1 1 17.488779 12.937106 13.649370
523 1 1 17.368170 13.181332 13.384403
524 1 1 17.316090 13.555911 13.347282
525 1 1 17.593811 13.813738 13.319061
526 1 1 17.971911 13.797978 13.284532
527 1 1 18.169343 13.943237 12.994152
528 1 1 18.025853 14.277733 12.884959
529 1 1 17.863902 14.613482 12.958746
530 1 1 17.977233 14.953714 12.833055
531 1 1 17.767434 15.246591 12.953915
532 1 1 17.828935 15.262905 13.328550
533 1 1 18.128190 15.462004 13.451864
534 1 1 18.389487 15.601318 13.213713
535 1 1 18.472304 15.959180 13.116370
536 1 1 18.301295 16.296981 13.084012
537 1 1 17.922215 16.278319 13.065311
538 1 1 17.570130 16.206055 13.188656
539 1 1 17.392395 16.541880 13.194271
540 1 1 17.276986 16.808142 13.439598
541 1 1 17.131593 16.785901 13.789978
542 1 1 17.130277 16.776760 14.169866
543 1 1 16.804467 16.688411 14.344344
544 1 1 16.471705 16.532165 14.248131
545 1 1 16.286770 16.292707 14.478042
546 1 1 15.926494 16.184083 14.530971
547 1 1 15.784996 15.831438 14.526484
548 1 1 15.914751 15.488957 14.425143
549 1 1 16.239284 15.465277 14.228884
550 1 1 16.562575 15.526371 14.038751
551 1 1 16.885971 15.398208 14.191686
552 1 1 17.008395 15.377208 14.550812
553 1 1 16.863752 15.623067 14.801873
554 1 1 16.884557 15.979681 14.931465
555 1 1 16.951446 16.087395 15.289687
556 1 1 17.139811 16.297718 15.544016
557 1 1 17.466538 16.117061 15.614814
558 1 1 17.659789 15.791780 15.579514
559 1 1 17.930796 15.856867 15.321214
560 1 1 18.298461 15.760869 15.323836
561 1 1 18.553867 16.022639 15.427008
562 1 1 18.866553 16.181729 15.281003
563 1 1 18.959616 16.268114 14.922845
564 1 1 19.026560 15.970115 14.696758
565 1 1 18.938323 15.813792 14.361829
566 1 1 18.784049 15.467104 14.382002
567 1 1 18.461146 15.301940 14.268623
568 1 1 18.294108 14.966380 14.206190
569 1 1 18.117844 14.630862 14.233733
570 1 1 18.292953 14.429042 14.503928
571 1 1 18.599552 14.258923 14.357448
572 1 1 18.660250 13.883816 14.354191
573 1 1 18.575024 13.561562 14.171740
574 1 1 18.775751 13.269057 14.307938
575 1 1 19.155406 13.264067 14.323335
576 1 1 19.287267 12.938326 14.178749
577 1 1 19.593143 12.872900 13.962973
578 1 1 19.797046 12.855623 13.642777
579 1 1 19.829645 13.065387 13.327600
580 1 1 19.815178 13.074892 12.947995
581 1 1 19.593865 13.254471 12.696653
582 1 1 19.445383 13.327968 12.354672
583 1 1 19.183612 13.130438 12.162688
584 1 1 19.239269 12.811520 11.963707
585 1 1 19.109752 12.667293 11.636867
586 1 1 18.794501 12.748156 11.440710
587 1 1 18.424261 12.666088 11.464937
588 1 1 18.383196 12.344123 11.662551
589 1 1 18.571082 12.129339 11.913483
590 1 1 18.646094 11.894082 12.202321
591 1 1 18.513992 11.848633 12.555710
592 1 1 18.183270 12.031861 12.593799
593 1 1 17.962335 12.311805 12.725020
594 1 1 17.656798 12.312878 12.499086
595 1 1 17.519813 12.001415 12.329895
596 1 1 17.208479 11.814101 12.218611
597 1 1 16.939527 12.058134 12.106751
598 1 1 16.625275 11.921413 11.942576
599 1 1 16.258467 11.822226 11.946339
600 1 1 16.200235 11.489019 11.773186
601 1 1 15.831896 11.415612 11.830958
602 1 1 15.485039 11.496915 11.963170
603 1 1 15.427482 11.870137 11.920829
604 1 1 15.147571 12.119612 11.982572
605 1 1 14.815308 12.032645 12.145170
606 1 1 14.527117 11.796793 12.220802
607 1 1 14.521357 11.488738 11.998386
608 1 1 14.270097 11.303498 11.781697
609 1 1 13.989587 11.079803 11.906897
610 1 1 13.986957 10.769165 12.125751
611 1 1 14.288675 10.559202 12.029409
612 1 1 14.437196 10.221340 11.938906
613 1 1 14.708653 9.960684 11.991529
614 1 1 14.540345 9.688093 12.195898
615 1 1 14.228636 9.471055 12.207370
616 1 1 14.083161 9.239539 12.471260
617 1 1 13.983789 9.362080 12.816961
618 1 1 13.783321 9.183459 13.085861
619 1 1 13.973265 8.866800 13.175575
620 1 1 13.948933 8.715153 13.523154
621 1 1 14.010551 8.350910 13.612207
622 1 1 14.212793 8.031945 13.570262
623 1 1 14.542818 7.847473 13.532135
624 1 1 14.576176 7.554753 13.292131
625 1 1 14.432549 7.607614 12.944313
626 1 1 14.058272 7.550612 12.976986
627 1 1 13.792724 7.371809 12.772257
628 1 1 13.608287 7.587992 12.519971
629 1 1 13.453078 7.930831 12.467328
630 1 1 13.095275 7.952711 12.341239
631 1 1 13.084992 8.077477 11.982452
632 1 1 13.422638 8.179812 11.841304
633 1 1 13.801323 8.209712 11.831121
634 1 1 14.163477 8.119242 11.902253
635 1 1 14.220783 7.838107 12.151410
636 1 1 14.207603 7.517259 12.354593
637 1 1 14.060470 7.176865 12.271626
638 1 1 14.034353 6.983476 11.945561
639 1 1 13.922734 6.970719 11.582548
640 1 1 13.683830 6.961649 11.287179
641 1 1 13.516943 6.668271 11.112599
642 1 1 13.350217 6.436444 10.861883
643 1 1 13.068059 6.188926 10.921227
644 1 1 12.777201 6.034795 11.111082
645 1 1 12.737137 5.781709 11.391693
646 1 1 13.034184 5.581820 11.519005
647 1 1 13.285254 5.511949 11.795558
648 1 1 13.537910 5.701704 12.006646
649 1 1 13.682726 5.927642 12.275682
650 1 1 13.853658 5.818263 12.596958
651 1 1 13.948217 5.488647 12.760702
652 1 1 14.284532 5.311791 12.756971
653 1 1 14.612981 5.268865 12.943193
654 1 1 14.963996 5.226885 13.082572
655 1 1 15.179183 4.913974 13.096019
656 1 1 15.449492 4.919487 13.363045
657 1 1 15.684352 5.213431 13.309775
658 1 1 15.591686 5.430325 13.011831
659 1 1 15.660130 5.648469 12.708304
660 1 1 15.695021 6.025832 12.680382
661 1 1 15.847382 6.207643 12.977250
662 1 1 16.114280 6.206238 13.247738
663 1 1 16.054667 6.305517 13.609663
664 1 1 16.129398 6.517246 13.916235
665 1 1 16.218173 6.546817 14.284534
666 1 1 16.230631 6.833012 14.534208
667 1 1 16.424675 7.074966 14.753766
668 1 1 16.391802 7.369491 14.991619
669 1 1 16.670572 7.576877 15.145497
670 1 1 16.578020 7.861989 15.379046
671 1 1 16.492088 8.100639 15.661998
672 1 1 16.255544 8.367912 15.531567
673 1 1 16.047712 8.679586 15.595325
674 1 1 15.997854 8.978996 15.366703
675 1 1 15.665558 9.136703 15.462139
676 1 1 15.364735 8.957680 15.609979
677 1 1 15.365241 8.741803 15.922703
678 1 1 15.106722 8.563566 16.136712
679 1 1 14.907809 8.280402 16.293719
680 1 1 14.654420 8.015860 16.394773
681 1 1 14.296819 7.891720 16.361446
682 1 1 14.299467 7.628599 16.087292
683 1 1 14.120773 7.619705 15.752047
684 1 1 13.913511 7.589953 15.434939
685 1 1 13.827411 7.895300 15.225773
686 1 1 13.670816 8.241141 15.242250
687 1 1 13.786014 8.579508 15.371235
688 1 1 14.021157 8.877804 15.382530
689 1 1 14.209987 9.198405 15.459720
690 1 1 14.375004 9.164460 15.800333
691 1 1 14.531059 9.075043 16.135074
692 1 1 14.739762 9.169322 16.438314
693 1 1 14.590132 9.346822 16.739154
694 1 1 14.328702 9.514202 16.958330
695 1 1 14.446753 9.873677 16.993559
696 1 1 14.570475 9.978226 17.337306
697 1 1 14.389026 9.886701 17.658398
698 1 1 14.598386 9.748762 17.943952
699 1 1 14.881901 9.535428 18.079995
700 1 1 15.070692 9.262356 18.264900
701 1 1 15.393753 9.216812 18.459727
702 1 1 15.563378 9.188411 18.798579
703 1 1 15.332543 9.194746 19.100365
704 1 1 15.011720 9.375187 19.194777
705 1 1 14.724231 9.542314 19.378675
706 1 1 14.677867 9.776208 19.674554
707 1 1 14.595848 9.644552 20.021454
708 1 1 14.297015 9.735224 20.237965
709 1 1 14.048790 9.731129 20.525659
710 1 1 13.718836 9.545869 20.490887
711 1 1 13.353187 9.470589 20.419942
712 1 1 13.112980 9.375814 20.698722
713 1 1 12.958684 9.669508 20.884023
714 1 1 12.759180 9.989817 20.928752
715 1 1 12.779884 10.368934 20.944290
716 1 1 12.742959 10.716195 21.094111
717 1 1 12.482937 10.737392 21.370406
718 1 1 12.530193 10.674587 21.742188
719 1 1 12.450408 10.415593 22.008564
720 1 1 12.228882 10.223626 22.250380
721 1 1 12.380449 10.032616 22.541830
722 1 1 12.692995 9.894836 22.708358
723 1 1 12.983401 10.103739 22.580200
724 1 1 13.306237 10.292472 22.512698
725 1 1 13.513214 10.265722 22.830259
726 1 1 13.480586 10.548652 23.081827
727 1 1 13.353232 10.701882 23.405403
728 1 1 13.003139 10.835417 23.342134
729 1 1 12.977075 11.212819 23.378031
730 1 1 12.611707 11.298221 23.438138
731 1 1 12.253639 11.403683 23.366968
732 1 1 12.131920 11.208412 23.064554
733 1 1 11.901484 10.945923 22.914892
734 1 1 11.900088 10.603643 23.079945
735 1 1 11.572458 10.411176 23.083873
736 1 1 11.242167 10.330176 23.253421
737 1 1 10.995768 10.409109 23.531732
738 1 1 10.957368 10.712263 23.757615
739 1 1 10.736875 11.019589 23.794135
740 1 1 10.572874 11.056432 24.134938
741 1 1 10.675419 11.189760 24.475684
742 1 1 10.995810 11.283326 24.657330
743 1 1 11.236731 11.529272 24.818164
744 1 1 11.414306 11.530791 25.154118
745 1 1 11.547657 11.716558 25.457612
746 1 1 11.795842 11.957614 25.614762
747 1 1 12.068286 11.783700 25.814582
748 1 1 12.384400 11.992308 25.783688
749 1 1 12.713662 12.101808 25.628780
750 1 1 12.752821 11.890981 25.315063
751 1 1 12.589507 11.696678 25.032265
752 1 1 12.365200 11.492778 24.803112
753 1 1 12.185302 11.604791 24.487692
754 1 1 11.899006 11.603831 24.237825
755 1 1 11.888815 11.886857 23.984463
756 1 1 11.780111 11.836262 23.623875
757 1 1 11.878182 12.100131 23.368620
758 1 1 12.071851 11.995220 23.058965
759 1 1 12.340914 11.951058 22.794287
760 1 1 12.452321 11.593439 22.730276
761 1 1 12.814380 11.507200 22.806933
762 1 1 13.162450 11.400430 22.698088
763 1 1 13.230413 11.056494 22.551497
764 1 1 13.546862 10.938806 22.377114
765 1 1 13.891571 11.086456 22.438557
766 1 1 14.068671 11.381983 22.598868
767 1 1 13.867372 11.635684 22.797650
768 1 1 13.976625 11.674020 23.159581
769 1 1 13.733984 11.892190 23.354329
770 1 1 13.371321 11.781478 23.379200
771 1 1 13.002947 11.828139 23.459966
772 1 1 12.894356 12.015418 23.772272
773 1 1 13.090357 12.311528 23.907560
774 1 1 13.003519 12.511244 24.218964
775 1 1 12.769182 12.793464 24.119777
776 1 1 12.639472 13.082106 23.909393
777 1 1 12.497199 13.428477 23.844694
778 1 1 12.517298 13.471259 23.467646
779 1 1 12.321538 13.468953 23.141957
780 1 1 12.373654 13.691615 22.838469
781 1 1 12.508947 13.480095 22.553240
782 1 1 12.541253 13.666726 22.223808
783 1 1 12.787554 13.948038 22.291623
784 1 1 12.891046 14.279684 22.137673
785 1 1 12.768848 14.639391 22.146556
786 1 1 12.693550 15.008815 22.099058
787 1 1 12.565165 15.299879 21.891215
788 1 1 12.433693 15.459027 21.572174
789 1 1 12.373585 15.583613 21.218245
790 1 1 12.158655 15.668618 20.916618
791 1 1 11.802745 15.705287 21.044616
792 1 1 11.466332 15.537833 20.988177
793 1 1 11.185101 15.525876 21.243453
794 1 1 11.093030 15.174136 21.353917
795 1 1 10.770034 14.977521 21.391541
796 1 1 10.822192 14.629338 21.534539
797 1 1 10.808174 14.327768 21.765318
798 1 1 10.946581 14.140774 22.065779
799 1 1 11.037920 14.260010 22.414835
800 1 1 11.157050 14.179592 22.766604
801 1 1 11.414222 13.949820 22.926188
802 1 1 11.522633 13.635522 23.110209
803 1 1 11.666800 13.446499 23.406665
804 1 1 11.533002 13.143221 23.592461