LAMMPS data file for polymer system

22500 atoms
22450 bonds

1 atom types
1 bond types

0.0 31.04385442133693 xlo xhi
0.0 31.04385442133693 ylo yhi
0.0 31.04385442133693 zlo zhi

Masses

1 5.65487

Atoms

1 1 1 1.798478 26.752276 1.891953
2 1 1 1.526180 26.866009 2.131366
3 1 1 1.445498 26.700173 2.463615
4 1 1 1.313736 26.450355 2.717839
5 1 1 1.263890 26.502561 3.090920
6 1 1 1.182845 26.862254 3.182861
7 1 1 1.005912 26.924358 3.513372
8 1 1 1.069937 26.688384 3.804262
9 1 1 1.062239 26.562923 4.162870
10 1 1 0.772640 26.675404 4.381687
11 1 1 0.506618 26.488186 4.578108
12 1 1 0.485554 26.312056 4.914165
13 1 1 0.215323 26.500232 5.103810
14 1 1 30.948506 26.502914 5.322616
15 1 1 30.739237 26.186060 5.337112
16 1 1 30.413090 26.178578 5.531975
17 1 1 30.187002 26.451568 5.395006
18 1 1 30.155860 26.779021 5.204730
19 1 1 29.987719 26.974682 4.925723
20 1 1 29.751780 27.270184 4.963288
21 1 1 29.615082 27.481783 5.247787
22 1 1 29.265020 27.365309 5.338838
23 1 1 28.923772 27.226269 5.431670
24 1 1 28.583713 27.215350 5.262435
25 1 1 28.373879 26.914653 5.162683
26 1 1 28.571912 26.718400 4.904482
27 1 1 28.746531 26.666557 4.570985
28 1 1 28.775118 26.983078 4.362665
29 1 1 29.022376 27.250725 4.254829
30 1 1 29.162215 27.506486 4.498615
31 1 1 29.184696 27.705505 4.821548
32 1 1 28.841641 27.767231 4.972887
33 1 1 28.832535 27.894553 5.330806
34 1 1 28.623486 28.107217 5.566332
35 1 1 28.668907 28.258925 5.911762
36 1 1 28.840952 28.014401 6.146300
37 1 1 28.957285 27.883284 6.483457
38 1 1 29.091420 27.879694 6.838978
39 1 1 29.310450 27.605454 6.984642
40 1 1 29.209724 27.374386 7.269004
41 1 1 29.236290 27.018934 7.400718
42 1 1 29.131795 26.791419 7.114855
43 1 1 28.918986 26.524589 6.947779
44 1 1 28.683504 26.594616 6.657875
45 1 1 28.756313 26.953398 6.556020
46 1 1 28.546659 27.007636 6.243765
47 1 1 28.492816 27.377025 6.172682
48 1 1 28.478637 27.596159 5.862555
49 1 1 28.212676 27.644168 5.595421
50 1 1 27.855282 27.765292 5.640123
51 1 1 27.600435 27.495906 5.557152
52 1 1 27.606647 27.331321 5.214700
53 1 1 27.402716 27.371350 4.896565
54 1 1 27.119508 27.320207 4.648417
55 1 1 26.792557 27.302077 4.455610
56 1 1 26.820647 27.163368 4.102948
57 1 1 26.492631 27.106526 3.919715
58 1 1 26.485823 26.900248 3.600649
59 1 1 26.444234 26.576566 3.405968
60 1 1 26.437784 26.208670 3.500894
61 1 1 26.706840 25.992419 3.342010
62 1 1 26.825808 26.121216 3.004877
63 1 1 26.913923 25.848938 2.754876
64 1 1 26.850550 25.781519 2.386313
65 1 1 26.653030 25.760560 2.062359
66 1 1 26.504565 26.055526 1.874334
67 1 1 26.270997 26.281690 2.071045
68 1 1 26.238314 26.660112 2.059710
69 1 1 25.985274 26.799739 1.812982
70 1 1 25.814779 27.121301 1.922203
71 1 1 25.477999 27.199961 1.764749
72 1 1 25.224178 26.918434 1.791532
73 1 1 25.096865 26.654962 2.033965
74 1 1 24.948482 26.610387 2.380946
75 1 1 24.587246 26.492454 2.381465
76 1 1 24.261877 26.628303 2.239761
77 1 1 23.934911 26.436755 2.268099
78 1 1 23.781187 26.444558 2.615530
79 1 1 23.409499 26.467731 2.691099
80 1 1 23.269506 26.730082 2.454511
81 1 1 23.215549 26.771334 2.080630
82 1 1 22.870583 26.783933 1.921759
83 1 1 22.601032 26.923621 1.693221
84 1 1 22.248505 27.041033 1.772839
85 1 1 22.065343 27.148035 1.457558
86 1 1 21.988516 27.508437 1.364778
87 1 1 21.629064 27.630724 1.349282
88 1 1 21.621007 28.009816 1.374271
89 1 1 21.665801 28.254824 1.087279
90 1 1 21.513625 28.193236 0.744570
91 1 1 21.431341 28.351692 0.409129
92 1 1 21.397743 28.710653 0.289052
93 1 1 21.455603 28.697573 30.957565
94 1 1 21.653476 28.546531 30.670454
95 1 1 21.546298 28.620319 30.313427
96 1 1 21.274458 28.618142 30.047911
97 1 1 21.350083 28.706390 29.686119
98 1 1 21.618884 28.925205 29.530343
99 1 1 21.911969 28.870401 29.294764
100 1 1 22.271896 28.983576 29.339976
101 1 1 22.331268 29.324581 29.183163
102 1 1 22.633744 29.549552 29.135243
103 1 1 22.933972 29.769380 29.058182
104 1 1 23.135570 30.050746 29.214999
105 1 1 23.031724 30.371321 29.390634
106 1 1 23.216412 30.601587 29.629941
107 1 1 23.249855 30.955736 29.496299
108 1 1 22.995995 0.186240 29.564727
109 1 1 23.237045 0.321699 29.825391
110 1 1 23.568792 0.478381 29.726423
111 1 1 23.923082 0.492083 29.589709
112 1 1 23.961927 0.454951 29.213528
113 1 1 23.968941 0.811076 29.081144
114 1 1 24.164795 0.953916 28.788503
115 1 1 24.541942 0.914686 28.763582
116 1 1 24.754497 1.217970 28.678500
117 1 1 24.972049 1.424123 28.444894
118 1 1 25.115591 1.565939 28.122894
119 1 1 25.103365 1.911972 27.966333
120 1 1 25.392579 2.154794 27.923993
121 1 1 25.627639 2.380857 28.119037
122 1 1 25.957328 2.356764 28.306453
123 1 1 26.273491 2.564934 28.273190
124 1 1 26.365854 2.928337 28.334893
125 1 1 26.569280 3.220641 28.202316
126 1 1 26.846292 3.480473 28.190018
127 1 1 26.843560 3.792480 27.973121
128 1 1 27.041005 4.067206 28.146155
129 1 1 26.820192 4.245534 28.398822
130 1 1 26.713551 4.609138 28.427459
131 1 1 26.769079 4.903324 28.193426
132 1 1 26.514084 5.181702 28.236822
133 1 1 26.301430 5.487458 28.161384
134 1 1 26.377895 5.728586 28.444952
135 1 1 26.531516 6.067907 28.369706
136 1 1 26.687748 6.411956 28.329429
137 1 1 27.029280 6.508112 28.465478
138 1 1 27.295502 6.237202 28.477048
139 1 1 27.355902 6.101004 28.826622
140 1 1 27.480847 5.742183 28.832647
141 1 1 27.210306 5.477378 28.799699
142 1 1 27.159300 5.188623 29.041399
143 1 1 27.242018 5.256610 29.406003
144 1 1 27.172221 5.047393 29.715449
145 1 1 27.470301 4.877156 29.878445
146 1 1 27.801528 4.741109 30.005645
147 1 1 27.973330 4.445544 30.171553
148 1 1 28.015796 4.312178 30.524838
149 1 1 27.858376 4.160304 30.835568
150 1 1 27.528131 4.324763 30.926622
151 1 1 27.475881 4.005172 0.081594
152 1 1 27.771970 4.176759 0.246788
153 1 1 27.911240 4.242277 0.594224
154 1 1 28.012155 4.597335 0.684500
155 1 1 27.738560 4.815135 0.833189
156 1 1 27.835958 5.052015 1.113905
157 1 1 28.151539 5.263630 1.119160
158 1 1 28.288649 5.529321 0.884621
159 1 1 28.408323 5.871096 0.999809
160 1 1 28.653560 6.067936 1.213147
161 1 1 29.004266 6.027710 1.072481
162 1 1 29.128915 6.267797 0.805609
163 1 1 29.479035 6.315373 0.665778
164 1 1 29.518036 6.310184 0.287820
165 1 1 29.586030 5.989638 0.095396
166 1 1 29.685212 5.729690 0.354221
167 1 1 29.859793 5.408652 0.458412
168 1 1 29.885225 5.088236 0.255714
169 1 1 29.916233 4.851106 31.004258
170 1 1 29.810128 4.487496 31.034746
171 1 1 29.471029 4.353677 0.098147
172 1 1 29.392940 3.984262 0.055306
173 1 1 29.289474 3.619465 0.030448
174 1 1 29.063307 3.506495 0.314148
175 1 1 29.164915 3.224653 0.547902
176 1 1 28.903982 2.948789 0.533305
177 1 1 29.052088 2.657431 0.727148
178 1 1 29.128505 2.336036 0.914939
179 1 1 29.473668 2.248856 1.047839
180 1 1 29.657819 1.939890 1.170428
181 1 1 29.859520 1.851622 1.480147
182 1 1 30.232387 1.805274 1.536913
183 1 1 30.537454 1.899085 1.330676
184 1 1 30.807528 1.668451 1.195516
185 1 1 30.828475 1.433712 0.897424
186 1 1 31.009185 1.477654 0.566044
187 1 1 30.953847 1.827985 0.429642
188 1 1 30.585699 1.910614 0.474808
189 1 1 30.227693 1.990583 0.375630
190 1 1 30.211005 2.369059 0.346003
191 1 1 29.944984 2.636674 0.390884
192 1 1 29.755110 2.868995 0.624068
193 1 1 29.694813 3.181014 0.832416
194 1 1 29.624128 3.438069 1.103204
195 1 1 29.893887 3.704447 1.129149
196 1 1 30.176514 3.589096 1.355460
197 1 1 30.421366 3.327301 1.229323
198 1 1 30.730201 3.105910 1.226750
199 1 1 30.773360 2.830946 1.485463
200 1 1 30.716925 2.477515 1.613140
201 1 1 0.026541 2.614221 1.585384
202 1 1 0.231796 2.433460 1.849193
203 1 1 0.595650 2.393571 1.951268
204 1 1 0.701052 2.159038 2.231063
205 1 1 0.678645 1.805457 2.368461
206 1 1 0.874894 1.480094 2.363482
207 1 1 1.139368 1.444486 2.092954
208 1 1 1.452649 1.659331 2.083145
209 1 1 1.782296 1.836315 2.016742
210 1 1 1.730213 2.094159 1.742509
211 1 1 1.705904 2.060156 1.364815
212 1 1 1.945681 1.831844 1.178320
213 1 1 2.238209 1.599628 1.248339
214 1 1 2.581575 1.718739 1.137377
215 1 1 2.717919 2.058190 1.034504
216 1 1 2.549235 2.384282 0.936472
217 1 1 2.276105 2.635228 0.853853
218 1 1 2.324396 2.973244 0.687081
219 1 1 2.257323 3.097733 0.334372
220 1 1 1.992861 3.312238 0.165709
221 1 1 2.024271 3.444845 30.854840
222 1 1 2.360658 3.285452 30.931248
223 1 1 2.559894 2.968260 30.867263
224 1 1 2.497439 2.654948 30.661508
225 1 1 2.486553 2.309647 30.819777
226 1 1 2.772837 2.063641 30.863620
227 1 1 2.546049 2.120800 0.119265
228 1 1 2.878246 2.295604 0.060200
229 1 1 3.113207 2.552020 0.213315
230 1 1 3.429340 2.757608 0.166479
231 1 1 3.367020 2.830322 30.842599
232 1 1 3.397325 3.156510 30.650028
233 1 1 3.302320 3.519268 30.711513
234 1 1 3.012309 3.745989 30.617220
235 1 1 2.829127 3.557658 30.342674
236 1 1 2.974418 3.376677 30.041781
237 1 1 3.107148 3.303353 29.693347
238 1 1 3.416266 3.147739 29.536406
239 1 1 3.693758 2.937528 29.384061
240 1 1 4.021257 2.963800 29.574992
241 1 1 4.320673 2.811652 29.397224
242 1 1 4.343131 2.629279 29.064605
243 1 1 4.572465 2.765393 28.793904
244 1 1 4.936602 2.660644 28.765069
245 1 1 5.142420 2.875087 28.528313
246 1 1 5.255435 2.740546 28.191375
247 1 1 5.167095 3.014144 27.942899
248 1 1 5.142371 3.384908 27.863384
249 1 1 4.944560 3.644728 28.057714
250 1 1 4.908465 4.008926 28.159975
251 1 1 4.664404 4.271392 28.286251
252 1 1 4.338975 4.099288 28.380464
253 1 1 4.086225 4.327251 28.549433
254 1 1 3.847518 4.621615 28.521710
255 1 1 3.555273 4.863227 28.546539
256 1 1 3.201767 4.952598 28.653527
257 1 1 2.967858 5.112556 28.400347
258 1 1 2.889344 5.269124 28.063120
259 1 1 3.077332 5.366595 27.747589
260 1 1 3.393111 5.507133 27.589688
261 1 1 3.539438 5.803384 27.402008
262 1 1 3.419494 5.806208 27.041446
263 1 1 3.258441 5.508890 26.868056
264 1 1 2.940170 5.301944 26.851398
265 1 1 2.959370 5.062848 26.556670
266 1 1 2.698955 5.082476 26.280629
267 1 1 2.365487 5.125444 26.103561
268 1 1 2.267578 5.281366 25.771142
269 1 1 1.914640 5.359456 25.653941
270 1 1 1.794788 5.081984 25.423627
271 1 1 1.920405 4.732287 25.503202
272 1 1 2.100134 4.465818 25.705913
273 1 1 2.366292 4.395637 25.967895
274 1 1 2.389715 4.200473 26.293106
275 1 1 2.624279 4.256863 26.586704
276 1 1 2.830690 4.049476 26.829161
277 1 1 2.590458 3.789801 26.967932
278 1 1 2.372512 3.497218 27.074208
279 1 1 2.082268 3.381866 27.290662
280 1 1 1.914159 3.411441 27.630169
281 1 1 1.652989 3.168351 27.760927
282 1 1 1.598001 2.842774 27.572843
283 1 1 1.721216 2.902519 27.218374
284 1 1 1.658073 2.804584 26.856681
285 1 1 1.667781 2.688164 26.495084
286 1 1 1.532584 2.356213 26.368868
287 1 1 1.305230 2.089932 26.221203
288 1 1 1.147106 1.746321 26.184757
289 1 1 0.842675 1.529601 26.253706
290 1 1 0.732857 1.383276 25.920646
291 1 1 0.622015 1.294808 25.568102
292 1 1 0.448130 1.089600 25.299674
293 1 1 0.218258 0.805787 25.194749
294 1 1 30.951498 0.970377 25.050430
295 1 1 30.939438 0.815593 25.397268
296 1 1 30.860488 0.969479 25.735626
297 1 1 30.984450 0.935281 26.093207
298 1 1 0.015898 1.243895 26.301741
299 1 1 30.912305 1.593059 26.274465
300 1 1 30.688396 1.672608 25.977923
301 1 1 30.801613 1.625955 25.618194
302 1 1 0.082377 1.680704 25.807998
303 1 1 0.238040 1.779613 25.475754
304 1 1 0.581089 1.893323 25.358336
305 1 1 0.633143 1.996785 24.996416
306 1 1 0.641619 1.764353 24.695911
307 1 1 0.917368 1.512695 24.766839
308 1 1 1.232950 1.692437 24.878648
309 1 1 1.412874 1.823713 25.186534
310 1 1 1.752348 1.994429 25.190226
311 1 1 1.916638 2.235418 25.433810
312 1 1 2.041364 2.554803 25.269993
313 1 1 2.420913 2.549600 25.252227
314 1 1 2.604275 2.357255 25.523855
315 1 1 2.416592 2.330169 25.853159
316 1 1 2.315987 2.609803 26.089979
317 1 1 2.038581 2.865322 26.043543
318 1 1 2.135200 3.199981 25.891659
319 1 1 1.914152 3.500404 25.964349
320 1 1 1.546481 3.539958 25.876863
321 1 1 1.482591 3.286293 25.601232
322 1 1 1.292355 3.137419 25.307894
323 1 1 1.179371 2.791695 25.197852
324 1 1 0.940804 2.553406 25.022626
325 1 1 0.771399 2.656758 24.698558
326 1 1 0.838966 2.994148 24.537304
327 1 1 0.841297 3.341516 24.691351
328 1 1 0.736269 3.440525 25.042871
329 1 1 0.641448 3.756019 25.232271
330 1 1 0.668760 4.102754 25.385336
331 1 1 0.462696 4.411924 25.305642
332 1 1 0.580539 4.766267 25.235256
333 1 1 0.413449 5.071161 25.388618
334 1 1 0.573384 5.385178 25.246442
335 1 1 0.719890 5.569722 24.948315
336 1 1 1.088042 5.517545 24.869944
337 1 1 1.368805 5.302514 25.008989
338 1 1 1.595889 5.189299 24.726120
339 1 1 1.879198 4.938116 24.693813
340 1 1 1.770221 4.627035 24.504730
341 1 1 1.847266 4.420162 24.195428
342 1 1 1.625185 4.111959 24.185881
343 1 1 1.346208 3.864128 24.257655
344 1 1 1.371247 3.485065 24.248483
345 1 1 1.206707 3.385874 23.920630
346 1 1 1.090530 3.325529 23.563893
347 1 1 0.912257 3.026122 23.412321
348 1 1 1.063717 2.908221 23.084358
349 1 1 0.927835 2.783476 22.752131
350 1 1 0.751328 2.826497 22.418373
351 1 1 0.554982 2.897478 22.100867
352 1 1 0.658375 3.078212 21.782991
353 1 1 0.969729 3.295789 21.793877
354 1 1 1.232762 3.358014 22.060976
355 1 1 1.578365 3.409136 22.210458
356 1 1 1.831465 3.349469 22.487550
357 1 1 1.919380 3.307410 22.854840
358 1 1 2.073343 3.167877 23.173001
359 1 1 2.209092 3.375978 23.460518
360 1 1 2.076871 3.625028 23.715257
361 1 1 2.190788 3.980841 23.645832
362 1 1 2.456213 4.072079 23.389658
363 1 1 2.552395 3.969818 23.036541
364 1 1 2.598062 3.738776 22.738322
365 1 1 2.777707 3.535512 22.472218
366 1 1 3.140576 3.440783 22.410959
367 1 1 3.481773 3.350485 22.270136
368 1 1 3.621202 3.034091 22.427789
369 1 1 3.871737 2.805116 22.256900
370 1 1 3.894822 2.431383 22.321639
371 1 1 3.771780 2.073705 22.285217
372 1 1 3.567200 1.922327 22.003027
373 1 1 3.213775 1.982837 21.877211
374 1 1 2.896130 2.018532 22.082704
375 1 1 2.717275 1.817433 22.350977
376 1 1 2.950148 1.564052 22.512125
377 1 1 3.192070 1.281879 22.433055
378 1 1 3.116194 0.931933 22.560259
379 1 1 3.176715 0.865557 22.929490
380 1 1 3.235575 0.515517 23.065165
381 1 1 3.253604 0.198637 22.856210
382 1 1 3.333728 30.925550 22.662488
383 1 1 3.429784 30.645604 22.900824
384 1 1 3.618140 30.737858 23.217701
385 1 1 3.438959 30.740687 23.552793
386 1 1 3.277384 30.820511 23.887340
387 1 1 3.170911 0.012084 24.165974
388 1 1 3.342648 0.093278 23.836864
389 1 1 3.665819 0.049785 23.641750
390 1 1 3.974529 30.933652 23.795053
391 1 1 4.201374 30.629231 23.811480
392 1 1 4.135673 30.331746 23.584355
393 1 1 4.426491 30.094140 23.642390
394 1 1 4.464171 29.750720 23.800638
395 1 1 4.815704 29.745917 23.944865
396 1 1 4.955560 30.081598 24.055132
397 1 1 5.184012 30.330554 23.881263
398 1 1 5.285769 30.436127 23.530692
399 1 1 5.268072 30.652803 23.219022
400 1 1 5.086698 30.975714 23.304062
401 1 1 5.425533 0.089234 23.373516
402 1 1 5.730452 0.296342 23.465876
403 1 1 5.799649 0.664818 23.403924
404 1 1 6.064002 0.774491 23.653902
405 1 1 6.238856 0.671934 23.975318
406 1 1 6.614811 0.621099 23.997080
407 1 1 6.835430 0.397231 24.210646
408 1 1 6.906113 0.130905 24.472322
409 1 1 7.002428 30.852662 24.649458
410 1 1 7.137236 31.005270 24.328618
411 1 1 7.340215 30.743457 24.142463
412 1 1 7.692712 30.631560 24.229784
413 1 1 7.921038 30.352268 24.110354
414 1 1 7.853975 30.150442 23.795444
415 1 1 7.551077 30.187004 23.568914
416 1 1 7.251083 30.124008 23.793491
417 1 1 7.052390 29.935434 24.056856
418 1 1 6.842787 29.623684 24.114113
419 1 1 6.944586 29.281251 24.243639
420 1 1 6.691972 29.005736 24.175245
421 1 1 6.515313 28.821100 24.456495
422 1 1 6.167996 28.775335 24.603724
423 1 1 5.839299 28.952737 24.533818
424 1 1 5.568203 29.198787 24.432002
425 1 1 5.280595 29.398816 24.284794
426 1 1 4.934278 29.358579 24.435940
427 1 1 4.683909 29.116200 24.284388
428 1 1 4.356189 29.143470 24.474798
429 1 1 4.263726 28.848843 24.696260
430 1 1 3.948688 28.884484 24.905737
431 1 1 3.831763 29.027230 25.237930
432 1 1 3.551535 29.247595 25.369504
433 1 1 3.215532 29.212624 25.195495
434 1 1 2.844624 29.294175 25.208790
435 1 1 2.534186 29.451458 25.361403
436 1 1 2.279221 29.518474 25.635085
437 1 1 2.062385 29.806141 25.514134
438 1 1 2.013267 29.861982 25.141482
439 1 1 2.138530 30.172787 24.962291
440 1 1 2.439955 30.398855 24.912930
441 1 1 2.522191 30.631619 24.624039
442 1 1 2.828817 30.854205 24.652949
443 1 1 3.068548 0.086864 24.755269
444 1 1 3.309066 0.380700 24.769815
445 1 1 3.535006 0.674046 24.684379
446 1 1 3.866618 0.801401 24.549421
447 1 1 4.205761 0.960489 24.485599
448 1 1 4.395304 1.278622 24.400367
449 1 1 4.685790 1.323155 24.159462
450 1 1 4.902173 1.635406 24.168255
451 1 1 10.895565 20.564198 3.962006
452 1 1 10.883599 20.887681 4.161041
453 1 1 10.620602 20.865525 4.434430
454 1 1 10.243493 20.826485 4.408643
455 1 1 9.903979 20.723217 4.544532
456 1 1 9.620011 20.475602 4.495043
457 1 1 9.470705 20.277711 4.783048
458 1 1 9.399067 20.404616 5.133994
459 1 1 9.299122 20.768239 5.087203
460 1 1 9.359815 21.032865 4.821328
461 1 1 9.169011 21.270555 4.594398
462 1 1 9.146017 21.404851 4.239665
463 1 1 9.029818 21.286480 3.897778
464 1 1 9.153129 21.199293 3.549077
465 1 1 8.886175 21.025479 3.341895
466 1 1 8.604860 21.188348 3.145082
467 1 1 8.559403 21.081956 2.783123
468 1 1 8.461324 21.292963 2.482696
469 1 1 8.164505 21.428617 2.288025
470 1 1 7.950646 21.380734 1.977588
471 1 1 7.604668 21.517059 2.055784
472 1 1 7.495655 21.425084 2.408001
473 1 1 7.198212 21.208732 2.503497
474 1 1 6.991457 20.891576 2.470871
475 1 1 6.885354 20.836653 2.110142
476 1 1 6.953324 21.060943 1.811020
477 1 1 6.847928 21.103254 1.448389
478 1 1 6.700096 21.390412 1.248174
479 1 1 6.678585 21.748987 1.372113
480 1 1 6.936353 21.998166 1.246154
481 1 1 6.958476 22.373043 1.304268
482 1 1 6.968052 22.589806 1.616233
483 1 1 6.995377 22.810264 1.924538
484 1 1 7.236336 22.817179 2.218291
485 1 1 7.313106 23.066415 2.494675
486 1 1 7.120715 23.337313 2.679066
487 1 1 7.122335 23.575928 2.974803
488 1 1 6.792547 23.747082 3.054464
489 1 1 6.463370 23.918990 2.973902
490 1 1 6.205059 24.191746 2.916635
491 1 1 6.016792 24.513907 2.844749
492 1 1 5.957960 24.766740 3.122263
493 1 1 5.629691 24.928329 3.224872
494 1 1 5.295844 25.109839 3.224946
495 1 1 5.126927 25.420197 3.364750
496 1 1 5.259296 25.759293 3.473801
497 1 1 5.328608 25.893829 3.822364
498 1 1 5.691048 25.990053 3.883832
499 1 1 6.047889 26.051879 3.998906
500 1 1 6.168547 26.329543 4.228567
501 1 1 6.239573 26.701557 4.197562
502 1 1 6.107491 27.049033 4.118726
503 1 1 6.341625 27.279244 3.927455
504 1 1 6.653450 27.476945 3.837571
505 1 1 7.001758 27.469688 3.685819
506 1 1 7.379134 27.513657 3.678501
507 1 1 7.674557 27.703107 3.824222
508 1 1 7.722417 27.638513 4.195620
509 1 1 7.684750 27.966394 4.383969
510 1 1 7.925922 28.239509 4.276058
511 1 1 8.105968 28.275381 3.943348
512 1 1 8.428172 28.476248 3.958743
513 1 1 8.777848 28.483783 3.810183
514 1 1 9.100073 28.574614 3.989964
515 1 1 9.455688 28.706848 4.011216
516 1 1 9.808226 28.644915 3.883617
517 1 1 10.020670 28.955336 3.937530
518 1 1 10.060148 29.267756 3.724845
519 1 1 9.894204 29.576361 3.871902
520 1 1 9.518597 29.580933 3.814470
521 1 1 9.422526 29.705356 3.468509
522 1 1 9.452210 29.575011 3.112800
523 1 1 9.817003 29.482945 3.059411
524 1 1 9.924049 29.230346 2.796476
525 1 1 10.291526 29.296943 2.726298
526 1 1 10.555642 29.293746 2.999488
527 1 1 10.829389 29.557285 3.002652
528 1 1 10.833277 29.924129 3.101701
529 1 1 10.975185 30.230698 3.275705
530 1 1 11.179186 30.453098 3.044790
531 1 1 11.375368 30.778299 3.032250
532 1 1 11.624336 30.755826 2.746051
533 1 1 11.933606 30.917923 2.596128
534 1 1 11.969113 0.124175 2.312251
535 1 1 11.806669 0.344766 2.575598
536 1 1 11.745666 0.678670 2.404756
537 1 1 12.013781 0.916421 2.531205
538 1 1 12.033395 1.280962 2.636680
539 1 1 12.334782 1.326008 2.863697
540 1 1 12.327050 1.645812 3.068797
541 1 1 12.086888 1.579284 3.355670
542 1 1 11.996795 1.210135 3.359201
543 1 1 12.022920 0.893408 3.567531
544 1 1 11.920402 0.738551 3.899057
545 1 1 12.038428 0.532199 4.195517
546 1 1 12.298052 0.738300 4.381307
547 1 1 12.479436 0.948297 4.121689
548 1 1 12.674393 1.259079 4.220715
549 1 1 12.938712 1.283458 4.492636
550 1 1 13.020931 1.355884 4.856497
551 1 1 13.323486 1.191290 5.017026
552 1 1 13.641381 1.242259 5.218879
553 1 1 13.968201 1.049264 5.200389
554 1 1 14.022107 0.680076 5.128313
555 1 1 13.881979 0.346834 5.011207
556 1 1 13.641595 0.093800 5.161503
557 1 1 13.618783 30.910245 5.465089
558 1 1 13.523639 30.617568 5.687997
559 1 1 13.361681 30.282308 5.612034
560 1 1 13.413852 30.014256 5.876282
561 1 1 13.683617 30.093139 6.132025
562 1 1 13.612136 30.018326 6.497666
563 1 1 13.566136 30.182373 6.837331
564 1 1 13.455014 30.427476 7.105616
565 1 1 13.629166 30.548500 7.420932
566 1 1 13.987037 30.470992 7.522523
567 1 1 14.201760 30.732111 7.348998
568 1 1 14.189050 0.005768 7.557386
569 1 1 14.032531 0.322284 7.697810
570 1 1 13.672118 0.248550 7.793024
571 1 1 13.418917 31.020689 7.873397
572 1 1 13.243437 30.684450 7.896847
573 1 1 13.160678 30.384811 8.115405
574 1 1 12.942355 30.075400 8.083789
575 1 1 12.731160 29.968993 8.381235
576 1 1 12.778728 29.725441 8.669019
577 1 1 12.478285 29.627529 8.880081
578 1 1 12.349864 29.521464 9.221634
579 1 1 12.256455 29.833952 9.416637
580 1 1 11.899187 29.955716 9.460599
581 1 1 11.557113 30.050486 9.324937
582 1 1 11.532989 30.180219 8.968584
583 1 1 11.833462 30.214959 8.738564
584 1 1 11.892473 30.321865 8.378718
585 1 1 11.749632 30.139126 8.077715
586 1 1 11.402882 29.991501 8.029018
587 1 1 11.051990 30.027341 8.170406
588 1 1 10.878215 30.268948 8.406687
589 1 1 10.533586 30.401421 8.316788
590 1 1 10.358687 30.151896 8.089746
591 1 1 9.982232 30.156151 8.038139
592 1 1 9.910218 29.837433 7.844147
593 1 1 9.662512 29.652231 7.623370
594 1 1 9.616985 29.548856 7.260547
595 1 1 9.604589 29.392867 6.914261
596 1 1 9.758529 29.056432 6.827580
597 1 1 10.079342 28.986822 6.636182
598 1 1 10.337423 28.891308 6.374130
599 1 1 10.567609 29.191281 6.336307
600 1 1 10.707786 29.160070 5.984488
601 1 1 11.031956 28.962725 5.965303
602 1 1 11.291650 28.762778 6.157606
603 1 1 11.385540 28.468301 6.378667
604 1 1 11.224612 28.463450 6.722875
605 1 1 11.054559 28.740506 6.919655
606 1 1 10.865742 29.065849 6.973509
607 1 1 10.618947 29.000900 7.255065
608 1 1 10.613084 29.226243 7.560983
609 1 1 10.343644 29.117901 7.806063
610 1 1 10.393695 29.187214 8.176320
611 1 1 10.179955 29.422714 8.384298
612 1 1 10.122018 29.262423 8.723931
613 1 1 10.436069 29.127171 8.889698
614 1 1 10.776414 29.292901 8.922860
615 1 1 11.043803 29.395253 8.673007
616 1 1 11.252997 29.083970 8.611842
617 1 1 11.233377 28.813473 8.878012
618 1 1 11.270652 28.442699 8.952428
619 1 1 11.385013 28.177723 8.705225
620 1 1 11.524168 28.147824 8.352887
621 1 1 11.653882 28.316319 8.037952
622 1 1 11.734799 28.439132 7.687568
623 1 1 12.092331 28.567724 7.681635
624 1 1 12.386584 28.721387 7.496696
625 1 1 12.569311 28.943008 7.745483
626 1 1 12.619746 29.316360 7.795128
627 1 1 12.886494 29.405397 8.050702
628 1 1 13.240615 29.353124 8.178238
629 1 1 13.334020 29.375182 8.545919
630 1 1 13.543136 29.666218 8.672287
631 1 1 13.864119 29.602107 8.865314
632 1 1 14.174089 29.418377 8.744641
633 1 1 14.385124 29.288568 9.032762
634 1 1 14.671473 29.275266 9.282217
635 1 1 14.988526 29.440783 9.410596
636 1 1 15.201469 29.513128 9.716899
637 1 1 15.327344 29.849467 9.841124
638 1 1 15.685315 29.974968 9.818638
639 1 1 16.058402 29.977202 9.890757
640 1 1 16.170896 29.654482 10.056881
641 1 1 16.405857 29.482265 10.300878
642 1 1 16.703803 29.333187 10.483645
643 1 1 16.932682 29.586939 10.649850
644 1 1 17.033416 29.842887 10.912039
645 1 1 17.217892 30.114213 11.103745
646 1 1 17.298497 30.473020 11.199453
647 1 1 17.498968 30.636519 11.477805
648 1 1 17.827675 30.530921 11.636550
649 1 1 18.190164 30.638971 11.600115
650 1 1 18.474910 30.642945 11.348513
651 1 1 18.829149 30.775017 11.310150
652 1 1 18.996871 30.560998 11.044697
653 1 1 19.374659 30.553123 11.084870
654 1 1 19.670680 30.477903 11.310953
655 1 1 19.702494 30.112621 11.410739
656 1 1 19.449725 29.829177 11.397818
657 1 1 19.609953 29.486015 11.428912
658 1 1 19.404752 29.291035 11.682439
659 1 1 19.114497 29.107796 11.845458
660 1 1 18.802926 29.114463 11.628022
661 1 1 18.511902 29.254005 11.828604
662 1 1 18.145290 29.154437 11.837629
663 1 1 17.811032 29.073927 11.999463
664 1 1 17.508996 28.892147 12.141345
665 1 1 17.383598 28.619484 11.908257
666 1 1 17.267770 28.485281 11.572142
667 1 1 17.169364 28.207144 11.332650
668 1 1 16.812440 28.106927 11.416087
669 1 1 16.651807 28.178735 11.752896
670 1 1 16.494602 28.511513 11.847477
671 1 1 16.381883 28.873076 11.816381
672 1 1 16.149771 29.152087 11.703790
673 1 1 15.838404 29.361916 11.645289
674 1 1 15.594470 29.647575 11.587883
675 1 1 15.269962 29.708217 11.399690
676 1 1 15.263059 30.052739 11.239513
677 1 1 14.941375 30.251482 11.201818
678 1 1 14.822228 30.579535 11.352102
679 1 1 14.694214 30.937048 11.338065
680 1 1 14.664168 0.047079 11.684211
681 1 1 15.024746 0.017820 11.800518
682 1 1 15.374320 31.035636 11.653821
683 1 1 15.560420 30.821761 11.400792
684 1 1 15.399522 30.707843 11.075931
685 1 1 15.255018 30.537485 10.768528
686 1 1 14.998751 30.334422 10.574897
687 1 1 14.920466 30.072150 10.311297
688 1 1 14.580443 30.161636 10.167158
689 1 1 14.366200 30.412611 10.355602
690 1 1 14.055687 30.451509 10.571168
691 1 1 13.713843 30.604725 10.507388
692 1 1 13.568080 30.898655 10.699112
693 1 1 13.307968 0.065831 10.878576
694 1 1 13.210738 0.000598 10.517064
695 1 1 13.207134 0.241373 10.223101
696 1 1 13.165249 0.565313 10.028915
697 1 1 13.351926 0.837514 10.217220
698 1 1 13.509230 1.043884 10.494829
699 1 1 13.804314 0.871538 10.661027
700 1 1 14.179755 0.919544 10.627269
701 1 1 14.333739 0.943717 10.280707
702 1 1 14.347145 0.675210 10.012148
703 1 1 14.406288 0.345852 10.192219
704 1 1 14.291887 0.327584 10.554129
705 1 1 14.320053 0.360685 10.931635
706 1 1 14.089752 0.347954 11.233627
707 1 1 13.725470 0.447508 11.191338
708 1 1 13.444099 0.609144 11.389085
709 1 1 13.592458 0.908866 11.569519
710 1 1 13.316273 1.151192 11.666473
711 1 1 13.098001 1.282160 11.948616
712 1 1 12.748157 1.259646 12.095253
713 1 1 12.505341 0.967549 12.106184
714 1 1 12.308280 0.901301 11.788099
715 1 1 12.091808 0.904189 11.475799
716 1 1 11.906411 0.777026 11.169437
717 1 1 11.709146 0.664372 10.864813
718 1 1 11.901085 0.462016 10.606722
719 1 1 12.243477 0.470564 10.442116
720 1 1 12.197696 0.424026 10.067765
721 1 1 12.504579 0.255974 9.919503
722 1 1 12.439433 30.931463 9.986311
723 1 1 12.802773 30.992661 10.079258
724 1 1 13.134335 30.834961 9.981290
725 1 1 13.231398 30.857422 9.614583
726 1 1 13.363906 0.164453 9.553582
727 1 1 13.487036 0.204806 9.196356
728 1 1 13.408020 0.059405 8.854281
729 1 1 13.214680 30.776151 8.858671
730 1 1 12.860797 30.914578 8.860945
731 1 1 12.788104 0.141270 9.117694
732 1 1 12.656304 0.479866 9.228967
733 1 1 12.886222 0.772740 9.304877
734 1 1 13.095265 0.849589 8.996988
735 1 1 13.125201 1.176847 8.806185
736 1 1 13.237192 1.531896 8.730039
737 1 1 13.456815 1.841834 8.719809
738 1 1 13.831914 1.887795 8.679959
739 1 1 14.017066 1.649434 8.910833
740 1 1 13.972297 1.398545 9.192703
741 1 1 13.794493 1.121629 9.382711
742 1 1 13.826177 0.984581 9.735718
743 1 1 13.731204 1.263635 9.975529
744 1 1 13.768637 1.641072 9.998774
745 1 1 13.757018 1.764874 9.639694
746 1 1 14.046061 1.937761 9.463727
747 1 1 14.128437 2.288361 9.584946
748 1 1 14.460709 2.464666 9.638910
749 1 1 14.627674 2.427687 9.978255
750 1 1 14.529151 2.620867 10.290305
751 1 1 14.188804 2.789860 10.292560
752 1 1 13.948531 2.967425 10.057741
753 1 1 13.573803 2.904459 10.061531
754 1 1 13.359631 2.843087 10.369368
755 1 1 13.584125 2.738541 10.657590
756 1 1 13.832397 2.634824 10.925926
757 1 1 13.964149 2.621293 11.282098
758 1 1 13.957077 2.863950 11.574447
759 1 1 14.101371 3.205520 11.657569
760 1 1 14.196924 3.492608 11.427678
761 1 1 14.546891 3.627101 11.489602
762 1 1 14.833194 3.633813 11.739373
763 1 1 15.105572 3.789453 11.953818
764 1 1 15.266908 3.535250 12.185662
765 1 1 15.515156 3.637677 12.454514
766 1 1 15.690479 3.747380 12.773304
767 1 1 15.449299 3.829697 13.055183
768 1 1 15.144057 4.006145 13.196935
769 1 1 15.003184 3.940246 13.543651
770 1 1 14.832972 4.231594 13.718421
771 1 1 14.835141 4.405447 14.056312
772 1 1 14.911604 4.390600 14.428243
773 1 1 15.227572 4.247106 14.583076
774 1 1 15.283812 4.103552 14.930393
775 1 1 15.427149 3.751659 14.925297
776 1 1 15.703227 3.492207 14.954727
777 1 1 15.943358 3.265028 15.142147
778 1 1 16.250037 3.087305 15.279124
779 1 1 16.510788 3.350292 15.364249
780 1 1 16.312277 3.635093 15.518785
781 1 1 16.049442 3.738062 15.773178
782 1 1 15.807440 3.467882 15.886483
783 1 1 15.754813 3.094344 15.932306
784 1 1 15.847006 2.808286 16.164838
785 1 1 15.783977 2.433696 16.154374
786 1 1 16.125419 2.267087 16.162050
787 1 1 16.439065 2.325759 15.955692
788 1 1 16.781008 2.160932 15.938173
789 1 1 16.751850 1.797703 15.830403
790 1 1 16.559430 1.487218 15.725646
791 1 1 16.279526 1.559583 15.479035
792 1 1 16.045479 1.380899 15.238839
793 1 1 16.012909 1.062613 15.033819
794 1 1 15.672486 0.922391 15.127894
795 1 1 15.427373 1.058955 14.871633
796 1 1 15.332200 1.160717 14.518099
797 1 1 15.178706 1.507742 14.497772
798 1 1 14.917049 1.736779 14.650996
799 1 1 14.617953 1.691063 14.880891
800 1 1 14.325877 1.871075 14.717529
801 1 1 14.135873 2.191225 14.793702
802 1 1 14.256454 2.395009 15.090910
803 1 1 14.560116 2.429351 15.316764
804 1 1 14.790377 2.724647 15.252110
805 1 1 15.072930 2.978737 15.253563
806 1 1 15.426588 2.918147 15.378681
807 1 1 15.600701 2.614325 15.526249
808 1 1 15.775806 2.341803 15.327579
809 1 1 15.637342 2.042774 15.138345
810 1 1 15.455429 1.710158 15.164318
811 1 1 15.430525 1.408417 15.393952
812 1 1 15.215750 1.275968 15.678080
813 1 1 15.042087 1.307714 16.014582
814 1 1 14.887908 1.516053 16.292474
815 1 1 14.808500 1.881136 16.223133
816 1 1 15.125239 2.089564 16.248318
817 1 1 15.175567 2.248430 15.906809