LAMMPS data file for polymer system

22500 atoms
22450 bonds

1 atom types
1 bond types

0.0 31.04385442133693 xlo xhi
0.0 31.04385442133693 ylo yhi
0.0 31.04385442133693 zlo zhi

Masses

1 5.65487

Atoms

1 1 1 26.835024 3.150591 28.586489
2 1 1 26.785618 3.312362 28.246211
3 1 1 27.107409 3.495377 28.160443
4 1 1 27.355736 3.643895 28.406769
5 1 1 27.336805 3.835572 28.734338
6 1 1 27.661567 3.828922 28.931532
7 1 1 27.858359 4.113230 29.089144
8 1 1 28.131716 4.241085 28.858213
9 1 1 28.411210 4.498541 28.858453
10 1 1 28.762498 4.561433 28.988994
11 1 1 28.980068 4.564744 28.677462
12 1 1 28.902681 4.836406 28.423275
13 1 1 29.051970 4.964655 28.098213
14 1 1 29.010756 5.342413 28.098148
15 1 1 28.670919 5.412140 28.253225
16 1 1 28.594259 5.588191 28.581142
17 1 1 28.602711 5.968096 28.582000
18 1 1 28.779845 6.303785 28.600339
19 1 1 28.586973 6.630751 28.617470
20 1 1 28.755885 6.873180 28.856420
21 1 1 28.615779 6.812381 29.204376
22 1 1 28.329010 6.712018 29.432611
23 1 1 28.053794 6.468121 29.336851
24 1 1 28.161541 6.126459 29.210133
25 1 1 27.937797 5.961980 28.950738
26 1 1 27.792533 5.639694 29.090129
27 1 1 27.538305 5.642559 29.372547
28 1 1 27.306522 5.486653 29.630170
29 1 1 27.110922 5.466933 29.955366
30 1 1 27.059201 5.233585 30.250787
31 1 1 27.262764 5.369081 30.541653
32 1 1 27.398194 5.532111 30.857057
33 1 1 27.243979 5.831150 31.033673
34 1 1 26.980663 6.104127 0.013243
35 1 1 27.015497 6.390821 0.260210
36 1 1 26.972966 6.318072 0.630749
37 1 1 27.217085 6.187804 0.891203
38 1 1 27.447633 6.049351 1.159677
39 1 1 27.662578 6.005796 1.470001
40 1 1 27.686091 6.056962 1.845806
41 1 1 27.614859 5.856038 2.160378
42 1 1 27.500961 5.987244 2.498331
43 1 1 27.535538 6.175524 2.826592
44 1 1 27.594935 5.937375 3.116690
45 1 1 27.315549 5.694036 3.201125
46 1 1 26.974684 5.810442 3.080043
47 1 1 26.608602 5.789798 2.980257
48 1 1 26.428616 5.640090 3.279577
49 1 1 26.141559 5.456867 3.448183
50 1 1 25.877769 5.367470 3.706684
51 1 1 25.590846 5.211686 3.901123
52 1 1 25.412306 4.990681 3.648774
53 1 1 25.071249 5.016169 3.483152
54 1 1 24.696990 5.061327 3.531021
55 1 1 24.500443 5.381788 3.586463
56 1 1 24.317449 5.582879 3.320991
57 1 1 24.383622 5.937573 3.201772
58 1 1 24.153242 6.236415 3.246702
59 1 1 24.201410 6.601146 3.341840
60 1 1 24.383670 6.617249 3.674889
61 1 1 24.412618 6.955913 3.844798
62 1 1 24.635237 7.233805 3.977527
63 1 1 24.933751 7.089410 4.163105
64 1 1 24.917327 7.007559 4.533822
65 1 1 24.746357 6.811157 4.810581
66 1 1 24.991670 6.560870 4.957474
67 1 1 25.319492 6.747481 5.003398
68 1 1 25.584657 6.677583 4.740335
69 1 1 25.896774 6.564298 4.925131
70 1 1 26.107489 6.621760 5.236093
71 1 1 26.468654 6.734055 5.199350
72 1 1 26.615574 6.510499 4.929467
73 1 1 26.550411 6.406941 4.569703
74 1 1 26.227894 6.314653 4.391194
75 1 1 26.223314 6.458008 4.039301
76 1 1 26.560725 6.546616 3.888628
77 1 1 26.525395 6.844851 3.655803
78 1 1 26.294597 7.144982 3.688258
79 1 1 26.019244 7.113901 3.948286
80 1 1 25.742507 6.873394 3.848422
81 1 1 25.427780 7.060116 3.746040
82 1 1 25.330342 6.939593 3.399081
83 1 1 25.036026 6.739221 3.266308
84 1 1 24.830517 6.880005 2.979348
85 1 1 24.988373 7.153844 2.768413
86 1 1 25.339705 7.107188 2.631340
87 1 1 25.704782 7.102224 2.736671
88 1 1 26.000430 7.221654 2.943381
89 1 1 26.229255 7.489135 2.800228
90 1 1 26.502166 7.694923 2.966273
91 1 1 26.415336 7.787053 3.324564
92 1 1 26.131170 8.008814 3.444863
93 1 1 26.028773 8.273965 3.192653
94 1 1 25.884337 8.548553 2.973246
95 1 1 25.819767 8.848537 2.749102
96 1 1 25.864909 9.216728 2.666656
97 1 1 26.118396 9.414376 2.463974
98 1 1 26.470509 9.456482 2.600516
99 1 1 26.838504 9.368929 2.564266
100 1 1 27.165904 9.468186 2.729667
101 1 1 27.522363 9.344011 2.685884
102 1 1 27.705126 9.036663 2.814474
103 1 1 27.442889 8.812334 2.973561
104 1 1 27.229353 8.582267 3.187738
105 1 1 27.090610 8.252857 3.058745
106 1 1 26.926796 8.214433 2.718027
107 1 1 27.129726 8.160913 2.401238
108 1 1 27.419348 8.112466 2.160050
109 1 1 27.486225 7.892508 1.857485
110 1 1 27.661622 7.845601 1.523665
111 1 1 27.695999 7.470103 1.476552
112 1 1 27.765105 7.289545 1.149408
113 1 1 28.057045 7.359744 0.916507
114 1 1 28.362359 7.367979 0.690419
115 1 1 28.575557 7.636146 0.526003
116 1 1 28.510500 8.010170 0.509451
117 1 1 28.269944 8.294124 0.586280
118 1 1 28.297190 8.669074 0.530869
119 1 1 28.345446 9.030172 0.638939
120 1 1 28.716659 9.106030 0.668034
121 1 1 29.039280 9.081869 0.867363
122 1 1 29.234663 8.962927 1.170807
123 1 1 29.485284 9.226115 1.281807
124 1 1 29.775103 9.384423 1.469806
125 1 1 29.932498 9.714745 1.367267
126 1 1 30.031912 9.725216 1.000651
127 1 1 29.921459 9.493820 0.720194
128 1 1 29.966188 9.123012 0.650188
129 1 1 30.034515 8.771044 0.776082
130 1 1 29.716728 8.624737 0.924423
131 1 1 29.666693 8.454865 1.260637
132 1 1 29.785775 8.095372 1.229257
133 1 1 29.871570 7.726071 1.254871
134 1 1 29.979093 7.470218 0.995298
135 1 1 29.958193 7.545293 0.623375
136 1 1 29.841096 7.575577 0.263137
137 1 1 30.081357 7.428650 0.008015
138 1 1 29.800732 7.654608 30.931069
139 1 1 29.634207 7.656735 30.589507
140 1 1 29.770907 7.648915 30.235033
141 1 1 30.025245 7.872761 30.062971
142 1 1 30.193646 8.213350 30.056618
143 1 1 30.233318 8.590215 30.028353
144 1 1 30.370136 8.889843 29.838871
145 1 1 30.739701 8.975324 29.816175
146 1 1 30.878979 9.285787 29.985333
147 1 1 0.029969 9.260065 29.660104
148 1 1 0.239685 9.230253 29.975590
149 1 1 0.560895 9.386758 30.104933
150 1 1 0.714187 9.369557 30.452216
151 1 1 0.784276 9.135946 30.743615
152 1 1 0.657925 8.786374 30.822575
153 1 1 0.581926 9.077981 0.010215
154 1 1 0.919564 9.245984 0.056857
155 1 1 1.289013 9.184518 0.121116
156 1 1 1.506147 9.007804 30.908018
157 1 1 1.356029 9.351859 30.848935
158 1 1 1.391415 9.707546 30.719961
159 1 1 1.703747 9.921771 30.750884
160 1 1 2.037926 10.094931 30.698533
161 1 1 2.344706 9.986803 30.502080
162 1 1 2.683178 9.815552 30.479494
163 1 1 2.778749 9.504136 30.675162
164 1 1 3.062836 9.255644 30.631043
165 1 1 3.415160 9.374627 30.709216
166 1 1 3.710984 9.165067 30.823113
167 1 1 4.065701 9.157263 30.687042
168 1 1 4.391226 9.273465 30.529149
169 1 1 4.568315 9.066152 30.264459
170 1 1 4.814038 9.279258 30.067974
171 1 1 4.871832 9.223806 29.696511
172 1 1 4.965840 8.951698 29.448479
173 1 1 5.115021 9.013369 29.104471
174 1 1 5.425660 8.826991 28.989723
175 1 1 5.790015 8.933385 28.971684
176 1 1 6.042797 9.217112 28.970907
177 1 1 6.326053 9.308090 28.734499
178 1 1 6.672222 9.156899 28.775833
179 1 1 6.959429 9.256711 29.003759
180 1 1 6.894325 9.295788 29.376095
181 1 1 7.174230 9.182864 29.606966
182 1 1 7.511517 9.236027 29.440199
183 1 1 7.693410 9.538707 29.580554
184 1 1 7.459212 9.800023 29.726380
185 1 1 7.658855 9.999823 29.980589
186 1 1 7.838692 9.861372 30.285368
187 1 1 8.089909 9.904904 30.567139
188 1 1 8.395251 9.974754 30.782284
189 1 1 8.772856 9.975600 30.739700
190 1 1 8.859064 10.184734 30.434363
191 1 1 8.566474 10.413889 30.355122
192 1 1 8.228522 10.522066 30.491087
193 1 1 7.999732 10.808465 30.390935
194 1 1 7.905809 11.044564 30.108382
195 1 1 7.900926 11.405078 30.228405
196 1 1 8.136792 11.601461 30.452461
197 1 1 8.122825 11.547949 30.828415
198 1 1 8.456964 11.636030 30.986505
199 1 1 8.820317 11.616191 0.052109
200 1 1 9.178752 11.557884 0.164023
201 1 1 9.429533 11.805773 0.305656
202 1 1 9.511841 11.644869 31.015243
203 1 1 9.249182 11.829420 30.811893
204 1 1 9.278983 11.957935 30.455528
205 1 1 9.115086 11.901888 30.117303
206 1 1 9.384275 11.984917 29.862267
207 1 1 9.408590 12.354227 29.776136
208 1 1 9.547008 12.651480 29.968180
209 1 1 9.418837 12.637237 30.325629
210 1 1 9.594871 12.683569 30.659193
211 1 1 9.620200 13.022410 30.829327
212 1 1 9.880291 13.274546 30.714524
213 1 1 10.175036 13.108023 30.541911
214 1 1 10.523984 12.995854 30.441645
215 1 1 10.900204 13.035605 30.477397
216 1 1 11.181470 12.884914 30.271043
217 1 1 11.306298 12.679070 29.977026
218 1 1 11.401546 12.433043 29.703533
219 1 1 11.406385 12.062259 29.620491
220 1 1 11.394436 11.955834 29.255894
221 1 1 11.608397 12.094258 28.974008
222 1 1 11.652997 12.073245 28.597220
223 1 1 11.866177 11.764442 28.537258
224 1 1 12.197016 11.587231 28.477744
225 1 1 12.192089 11.344769 28.185189
226 1 1 12.074534 11.314770 27.825077
227 1 1 12.006174 11.670350 27.709797
228 1 1 12.318509 11.787758 27.527965
229 1 1 12.635365 11.995019 27.560288
230 1 1 12.891221 11.933147 27.834349
231 1 1 13.046143 11.591931 27.897365
232 1 1 13.095428 11.440825 27.552202
233 1 1 13.065112 11.094654 27.398429
234 1 1 12.742932 10.989770 27.226385
235 1 1 12.511827 10.989511 26.924738
236 1 1 12.139838 11.035052 26.987586
237 1 1 12.006161 11.315244 27.206728
238 1 1 11.839473 11.625212 27.063427
239 1 1 11.514933 11.763875 27.204302
240 1 1 11.372807 12.093304 27.329509
241 1 1 11.005275 12.029353 27.401834
242 1 1 10.695722 12.238171 27.331324
243 1 1 10.523840 12.372133 27.020019
244 1 1 10.232668 12.465929 26.794583
245 1 1 10.133662 12.773017 26.593849
246 1 1 9.775501 12.844544 26.488945
247 1 1 9.734014 13.222153 26.479422
248 1 1 9.808819 13.593064 26.514473
249 1 1 9.811403 13.859427 26.785480
250 1 1 9.601975 13.831394 27.101318
251 1 1 9.321721 13.813985 27.357355
252 1 1 9.037067 13.821399 27.608984
253 1 1 9.030250 13.978194 27.955060
254 1 1 9.289769 13.979693 28.232634
255 1 1 9.495536 14.086440 28.533741
256 1 1 9.508859 13.928003 28.878879
257 1 1 9.247118 13.772464 29.106254
258 1 1 8.872832 13.778770 29.040908
259 1 1 8.649185 13.481358 28.963912
260 1 1 8.430991 13.397055 29.263386
261 1 1 8.062831 13.458768 29.192322
262 1 1 8.045867 13.639785 28.858638
263 1 1 8.199014 13.461821 28.559849
264 1 1 8.194019 13.304151 28.214139
265 1 1 8.381605 13.313388 27.883797
266 1 1 8.553990 13.169723 27.577131
267 1 1 8.857110 13.122466 27.352888
268 1 1 9.180744 12.969331 27.225567
269 1 1 9.506012 13.118967 27.352885
270 1 1 9.839915 13.035638 27.191750
271 1 1 9.953081 12.693270 27.311658
272 1 1 10.112911 12.580103 27.637307
273 1 1 9.947719 12.746842 27.936155
274 1 1 9.666883 12.532380 28.075931
275 1 1 9.550708 12.170945 28.059556
276 1 1 9.273130 12.134454 28.316498
277 1 1 9.069679 11.823118 28.238540
278 1 1 8.717742 11.896083 28.361897
279 1 1 8.359832 11.776837 28.407514
280 1 1 8.085421 11.777727 28.144650
281 1 1 7.733148 11.919661 28.132058
282 1 1 7.494223 12.198210 28.230676
283 1 1 7.333505 12.417098 27.964861
284 1 1 7.168818 12.568859 27.657865
285 1 1 6.834836 12.749767 27.669208
286 1 1 6.457937 12.703324 27.655431
287 1 1 6.115556 12.788062 27.514028
288 1 1 5.848530 12.526715 27.444781
289 1 1 5.649369 12.384464 27.735469
290 1 1 5.882772 12.154378 27.927778
291 1 1 6.197102 11.974367 27.812919
292 1 1 6.513257 11.925669 28.018039
293 1 1 6.525156 11.706553 28.328276
294 1 1 6.625383 11.847694 28.666556
295 1 1 6.558357 11.969217 29.020307
296 1 1 6.276284 11.921042 29.270335
297 1 1 6.114909 11.904275 29.613958
298 1 1 6.178322 11.559318 29.760189
299 1 1 6.010069 11.234050 29.861639
300 1 1 5.873122 11.025914 29.574716
301 1 1 5.664022 10.721852 29.484031
302 1 1 5.615837 10.347094 29.524460
303 1 1 5.426945 10.041682 29.400188
304 1 1 5.110793 9.851411 29.490989
305 1 1 4.895869 9.859933 29.804254
306 1 1 4.526691 9.911201 29.878274
307 1 1 4.423816 10.091755 30.196421
308 1 1 4.529539 10.301694 30.494998
309 1 1 4.781856 10.093259 30.688106
310 1 1 5.097342 10.159581 30.889278
311 1 1 5.393229 10.102522 0.076930
312 1 1 5.322012 10.474856 0.103304
313 1 1 5.246372 10.620691 0.445957
314 1 1 5.281861 10.893710 0.707875
315 1 1 5.170064 11.225196 0.856261
316 1 1 5.278478 11.538015 0.669740
317 1 1 5.293804 11.915269 0.626789
318 1 1 5.659753 12.003358 0.574622
319 1 1 5.809253 12.324447 0.436957
320 1 1 5.786344 12.683831 0.315637
321 1 1 6.045705 12.870213 0.521534
322 1 1 6.001199 13.244312 0.471848
323 1 1 5.706564 13.281854 0.234824
324 1 1 5.491061 13.082101 31.037726
325 1 1 5.715666 12.916142 30.780025
326 1 1 5.774525 12.624542 30.543583
327 1 1 5.553139 12.354030 30.394547
328 1 1 5.241752 12.344055 30.612121
329 1 1 5.281266 12.051270 30.851111
330 1 1 5.255802 11.692239 30.729258
331 1 1 5.150653 11.718007 0.049656
332 1 1 5.277593 11.359958 0.040324
333 1 1 5.574925 11.183238 0.197689
334 1 1 5.480087 10.991239 30.927630
335 1 1 5.116814 10.946067 31.029572
336 1 1 4.747925 10.902985 30.949169
337 1 1 4.388957 10.792331 31.006593
338 1 1 4.346647 11.167921 0.002013
339 1 1 4.145799 11.472372 30.939239
340 1 1 4.302720 11.697315 30.676225
341 1 1 4.139476 12.035399 30.617486
342 1 1 4.368835 12.337918 30.600859
343 1 1 4.514824 12.595119 30.362248
344 1 1 4.741961 12.430063 30.106191
345 1 1 4.948546 12.700869 29.937708
346 1 1 5.323109 12.675755 29.878785
347 1 1 5.699264 12.721914 29.850911
348 1 1 6.027446 12.796806 30.027226
349 1 1 6.403628 12.765218 29.983754
350 1 1 6.680669 12.797814 30.241796
351 1 1 6.771235 12.634630 30.572808
352 1 1 6.759672 12.656995 30.951973
353 1 1 6.891669 13.002744 31.038196
354 1 1 7.112152 12.705918 0.081986
355 1 1 7.297937 12.438341 0.277654
356 1 1 7.424688 12.308131 0.611389
357 1 1 7.694027 12.085963 0.761384
358 1 1 8.032766 12.157502 0.604739
359 1 1 8.315171 12.394058 0.697953
360 1 1 8.659267 12.430463 0.540877
361 1 1 8.621127 12.381646 0.165961
362 1 1 8.933789 12.324224 31.001620
363 1 1 8.982508 12.592655 30.737099
364 1 1 8.728014 12.693660 30.473601
365 1 1 8.547538 12.822384 30.164961
366 1 1 8.520878 12.891162 29.792190
367 1 1 8.769061 12.865511 29.505576
368 1 1 8.835702 12.863619 29.131470
369 1 1 8.560840 12.745267 28.897283
370 1 1 8.468735 12.389387 28.801022
371 1 1 8.519392 12.043380 28.949728
372 1 1 8.345791 11.835304 29.216124
373 1 1 8.243485 11.840439 29.582057
374 1 1 7.889281 11.738834 29.674880
375 1 1 7.669965 11.438427 29.597057
376 1 1 7.354897 11.288849 29.747915
377 1 1 7.008826 11.373845 29.879865
378 1 1 6.938868 11.367912 30.253323
379 1 1 6.566317 11.376556 30.327692
380 1 1 6.437197 11.041857 30.453009
381 1 1 6.555441 10.768940 30.216504
382 1 1 6.503917 10.392503 30.222866
383 1 1 6.473825 10.170580 30.529860
384 1 1 6.497342 10.354313 30.861657
385 1 1 6.222748 10.523041 0.019121
386 1 1 6.466440 10.754419 0.196543
387 1 1 6.313522 11.001249 0.441679
388 1 1 6.064058 11.218620 0.628541
389 1 1 6.045616 11.339396 0.988364
390 1 1 5.852699 11.663320 1.035864
391 1 1 5.603386 11.690361 1.321367
392 1 1 5.239817 11.758112 1.408704
393 1 1 5.167375 12.113825 1.296363
394 1 1 5.038139 12.470733 1.314094
395 1 1 4.967612 12.604811 0.965598
396 1 1 4.669108 12.665048 0.738295
397 1 1 4.321950 12.814596 0.777245
398 1 1 4.018972 12.586694 0.751459
399 1 1 3.692679 12.622877 0.942831
400 1 1 3.482507 12.936752 0.984188
401 1 1 3.640287 13.222189 0.789172
402 1 1 3.473608 13.553609 0.706838
403 1 1 3.107983 13.564234 0.603853
404 1 1 2.901017 13.250050 0.550432
405 1 1 2.540602 13.164286 0.634963
406 1 1 2.507344 12.855626 0.854104
407 1 1 2.215533 12.738293 1.067364
408 1 1 1.865881 12.728020 1.215815
409 1 1 1.846991 12.757807 1.594174
410 1 1 1.510713 12.820189 1.759782
411 1 1 1.313239 12.577602 1.975549
412 1 1 1.119908 12.273394 1.855214
413 1 1 1.038137 11.970696 2.069895
414 1 1 0.843064 11.766764 2.324371
415 1 1 1.073881 11.496931 2.459700
416 1 1 1.236438 11.153485 2.464160
417 1 1 1.530972 11.112934 2.227506
418 1 1 1.854141 11.220961 2.395708
419 1 1 1.948486 10.958704 2.654010
420 1 1 1.764541 10.897033 2.980753
421 1 1 1.509747 11.177569 3.008674
422 1 1 1.159354 11.206758 3.152802
423 1 1 0.973473 10.896329 3.036691
424 1 1 0.948067 10.606787 3.281477
425 1 1 0.833808 10.256537 3.188365
426 1 1 0.766757 9.891020 3.108982
427 1 1 0.758508 9.640711 2.823189
428 1 1 0.933597 9.303674 2.810967
429 1 1 0.940522 9.036096 2.541238
430 1 1 0.719364 8.849694 2.294776
431 1 1 0.754627 8.475210 2.240753
432 1 1 0.789780 8.290540 1.910509
433 1 1 1.095750 8.441137 1.742869
434 1 1 1.147925 8.772215 1.563802
435 1 1 1.214451 8.997442 1.265060
436 1 1 1.514897 8.908251 1.050172
437 1 1 1.700682 9.192693 0.879946
438 1 1 1.670635 9.491208 0.646738
439 1 1 1.753911 9.793442 0.861494
440 1 1 1.915029 9.847916 1.201309
441 1 1 1.965593 10.150861 1.425066
442 1 1 1.716717 10.427641 1.348560
443 1 1 1.424059 10.520335 1.124597
444 1 1 1.532726 10.523536 0.760480
445 1 1 1.785151 10.615194 0.491630
446 1 1 2.152236 10.705585 0.453182
447 1 1 2.269059 10.649807 0.095913
448 1 1 2.380095 10.900191 30.876369
449 1 1 2.423596 11.240048 30.712037
450 1 1 2.584189 11.223792 0.012197
451 1 1 22.942784 9.997076 7.977024
452 1 1 23.221189 10.255568 7.968527
453 1 1 23.561175 10.424529 7.984722
454 1 1 23.911158 10.556024 8.052696
455 1 1 24.088418 10.556724 7.716573
456 1 1 23.930337 10.383707 7.417449
457 1 1 23.629233 10.509198 7.222543
458 1 1 23.654585 10.698045 6.893767
459 1 1 23.931581 10.941805 6.802915
460 1 1 24.307370 10.973407 6.756178
461 1 1 24.483758 11.275353 6.904893
462 1 1 24.644179 11.596207 6.779524
463 1 1 24.795430 11.561207 6.432683
464 1 1 24.769312 11.711983 6.084855
465 1 1 24.875907 11.503565 5.785524
466 1 1 24.902644 11.137915 5.685598
467 1 1 25.084268 11.005108 5.379372
468 1 1 24.834707 10.908600 5.109547
469 1 1 24.645128 10.601325 5.228046
470 1 1 24.364819 10.509870 5.467760
471 1 1 23.995803 10.429658 5.425413
472 1 1 23.691053 10.561083 5.610495
473 1 1 23.655604 10.915866 5.741920
474 1 1 23.672571 11.272435 5.611649
475 1 1 23.501952 11.610688 5.641205
476 1 1 23.465554 11.702667 6.008104
477 1 1 23.478409 11.748500 6.385111
478 1 1 23.539054 12.044243 6.615888
479 1 1 23.862503 11.970165 6.801071
480 1 1 24.210390 12.077526 6.909921
481 1 1 24.205317 12.375839 7.145257
482 1 1 24.121688 12.448661 7.508718
483 1 1 24.143045 12.819488 7.588911
484 1 1 24.031910 13.170247 7.493952
485 1 1 23.658245 13.158770 7.425817
486 1 1 23.324329 13.096793 7.255351
487 1 1 23.189489 12.810682 7.044734
488 1 1 23.268474 12.439186 7.057061
489 1 1 23.381090 12.153669 7.281109
490 1 1 23.601100 11.929534 7.495023
491 1 1 23.947217 11.780418 7.446371
492 1 1 24.004959 11.404831 7.445748
493 1 1 24.342457 11.246741 7.519928
494 1 1 24.645997 11.474143 7.496441
495 1 1 24.907977 11.737080 7.415010
496 1 1 25.104311 11.848082 7.720839
497 1 1 25.478723 11.784332 7.708550
498 1 1 25.548023 11.412708 7.669910
499 1 1 25.707466 11.077850 7.587156
500 1 1 25.939982 11.125346 7.290372
501 1 1 26.178304 10.845092 7.195188
502 1 1 26.517550 10.963173 7.071217
503 1 1 26.749515 11.083840 7.346956
504 1 1 26.901926 11.219492 7.667532
505 1 1 26.974096 10.936915 7.911133
506 1 1 27.086120 10.574522 7.888277
507 1 1 27.413448 10.561599 7.695689
508 1 1 27.767161 10.516781 7.827135
509 1 1 27.965977 10.274121 8.041584
510 1 1 28.318566 10.144442 7.984451
511 1 1 28.491536 9.856996 7.805966
512 1 1 28.491618 9.608600 7.518392
513 1 1 28.227405 9.335519 7.514060
514 1 1 27.864283 9.437134 7.561142
515 1 1 27.507364 9.313044 7.521007
516 1 1 27.129790 9.318226 7.478453
517 1 1 26.805066 9.210604 7.643898
518 1 1 26.493803 8.993969 7.668069
519 1 1 26.318140 8.716854 7.476365
520 1 1 26.248445 8.849951 7.127327
521 1 1 26.550268 9.008333 6.959344
522 1 1 26.712793 9.210614 6.681733
523 1 1 26.669290 9.582023 6.614180
524 1 1 26.740565 9.677095 6.253235
525 1 1 27.002955 9.951860 6.245803
526 1 1 27.378534 9.908570 6.284100
527 1 1 27.574077 9.748689 6.000197
528 1 1 27.607314 9.543851 5.681862
529 1 1 27.526509 9.745716 5.370220
530 1 1 27.400111 10.103448 5.391464
531 1 1 27.437103 10.477422 5.447815
532 1 1 27.230797 10.564671 5.754776
533 1 1 26.938874 10.654271 5.980946
534 1 1 27.000120 10.761003 6.340469
535 1 1 26.951628 10.624862 6.691915
536 1 1 27.160677 10.732373 6.990478
537 1 1 27.470576 10.536628 7.090710
538 1 1 27.721508 10.420498 6.830043
539 1 1 28.101019 10.437270 6.839548
540 1 1 28.227804 10.127918 7.020176
541 1 1 28.181206 9.756070 6.957263
542 1 1 28.188147 9.635178 6.597073
543 1 1 28.424116 9.339534 6.560836
544 1 1 28.494173 8.997887 6.409941
545 1 1 28.492079 8.768998 6.106617
546 1 1 28.214467 8.789190 5.847920
547 1 1 28.236933 9.007141 5.537449
548 1 1 28.021686 9.040029 5.226022
549 1 1 27.700237 9.198008 5.099081
550 1 1 27.354224 9.295130 4.975622
551 1 1 27.131591 9.031961 4.815695
552 1 1 26.890503 8.803549 5.000369
553 1 1 26.572374 8.678851 5.166636
554 1 1 26.316065 8.401624 5.209655
555 1 1 26.237366 8.032403 5.253047
556 1 1 25.970151 7.824434 5.080579
557 1 1 25.705335 7.612230 5.251581
558 1 1 25.384854 7.411382 5.288355
559 1 1 25.118867 7.204732 5.112439
560 1 1 25.015735 7.307938 4.761565
561 1 1 25.234650 7.456665 4.488881
562 1 1 25.127543 7.707465 4.224254
563 1 1 25.156424 7.582481 3.866560
564 1 1 25.059725 7.294319 3.638498
565 1 1 24.978243 6.935927 3.735016
566 1 1 25.244768 6.681094 3.826801
567 1 1 25.400975 6.771366 4.161241
568 1 1 25.646165 6.786005 4.451185
569 1 1 25.941609 6.570542 4.554573
570 1 1 26.263098 6.771883 4.532058
571 1 1 26.393848 7.049995 4.755570
572 1 1 26.545456 7.306632 4.991267
573 1 1 26.776130 7.340014 5.291391
574 1 1 26.816090 7.705902 5.385884
575 1 1 26.603888 7.770278 5.694472
576 1 1 26.618575 7.753786 6.073829
577 1 1 26.533855 7.905040 6.411979
578 1 1 26.324800 8.080217 6.676571
579 1 1 26.230117 8.100038 7.044052
580 1 1 25.902801 8.016852 7.218249
581 1 1 25.567084 7.839655 7.201075
582 1 1 25.569613 7.459845 7.189330
583 1 1 25.787775 7.354205 7.481983
584 1 1 26.086783 7.120746 7.459829
585 1 1 26.279682 6.802370 7.383495
586 1 1 26.638706 6.824256 7.506062
587 1 1 26.806647 7.115921 7.682491
588 1 1 26.664560 7.227938 8.016652
589 1 1 26.403891 7.110171 8.266817
590 1 1 26.255794 6.778934 8.379730
591 1 1 26.104305 6.450245 8.263908
592 1 1 26.012795 6.229018 7.968808
593 1 1 25.681148 6.082805 7.854650
594 1 1 25.650940 5.936342 7.505313
595 1 1 25.652009 5.563864 7.430087
596 1 1 25.391107 5.508916 7.159326
597 1 1 25.145183 5.552571 6.872943
598 1 1 24.884542 5.286496 6.797642
599 1 1 24.935926 4.943314 6.952515
600 1 1 24.970186 4.565552 6.975372
601 1 1 24.659301 4.381035 7.092436
602 1 1 24.354644 4.571408 7.216300
603 1 1 24.399706 4.942867 7.282541
604 1 1 24.615046 5.048349 7.577332
605 1 1 24.526514 5.127591 7.938279
606 1 1 24.379237 5.407720 8.148606
607 1 1 24.387412 5.371395 8.526777
608 1 1 24.541840 5.621910 8.767181
609 1 1 24.904400 5.733562 8.789182
610 1 1 24.948142 5.878912 9.137550
611 1 1 25.173873 5.716021 9.396224
612 1 1 25.173197 5.761756 9.773461
613 1 1 24.947677 5.997590 9.968199
614 1 1 24.938705 6.371198 9.899377
615 1 1 24.989391 6.743017 9.959223
616 1 1 24.689577 6.928064 9.816851
617 1 1 24.506214 7.260117 9.794075
618 1 1 24.422144 7.406189 10.134656
619 1 1 24.199113 7.268966 10.410023
620 1 1 24.003423 7.476641 10.660974
621 1 1 23.739706 7.742288 10.726434
622 1 1 23.378561 7.830139 10.647334
623 1 1 23.379382 7.975715 10.296326
624 1 1 23.317270 8.171775 9.976791
625 1 1 23.210945 8.536593 9.978453
626 1 1 22.887947 8.719436 10.059945
627 1 1 22.709783 9.053984 10.032823
628 1 1 22.792411 9.385901 10.198363
629 1 1 22.691940 9.739531 10.102177
630 1 1 22.330046 9.810275 10.193979
631 1 1 22.192454 10.123158 10.360030
632 1 1 21.914154 10.039457 10.604863
633 1 1 21.694399 9.729685 10.617069
634 1 1 21.337627 9.769575 10.492479
635 1 1 21.321697 9.676794 10.124324
636 1 1 20.988582 9.505449 10.060483
637 1 1 20.667700 9.596530 9.878443
638 1 1 20.397494 9.329893 9.895577
639 1 1 20.476774 9.038142 9.665369
640 1 1 20.146954 8.869756 9.580134
641 1 1 19.853628 9.086969 9.685863
642 1 1 19.784642 8.990488 10.046879
643 1 1 19.614955 8.663291 10.139336
644 1 1 19.691383 8.596228 10.505480
645 1 1 19.560138 8.522393 10.854368
646 1 1 19.424844 8.732926 11.140325
647 1 1 19.417252 8.865694 11.496296
648 1 1 19.239191 8.912408 11.828729
649 1 1 18.948648 8.813304 12.052701
650 1 1 19.011144 8.784325 12.426405
651 1 1 18.997214 8.941217 12.772224
652 1 1 19.266337 9.196919 12.853395
653 1 1 19.605396 9.267499 12.697004
654 1 1 19.902821 9.134884 12.501169
655 1 1 19.997188 8.828782 12.296726
656 1 1 19.982061 8.657535 11.957837
657 1 1 20.100358 8.822301 11.636499
658 1 1 20.304274 8.644118 11.369912
659 1 1 20.106197 8.332640 11.279654
660 1 1 20.170383 8.092727 10.992039
661 1 1 20.106993 7.872382 10.689005
662 1 1 20.074268 8.078089 10.371178
663 1 1 20.255333 7.984429 10.050486
664 1 1 20.079636 7.974217 9.713698
665 1 1 20.144845 8.139340 9.377718
666 1 1 19.922636 8.345125 9.148207
667 1 1 19.973619 8.612613 8.883157
668 1 1 20.085873 8.735819 8.541662
669 1 1 20.329140 8.471231 8.418316
670 1 1 20.705738 8.421355 8.427594
671 1 1 20.835841 8.100255 8.271492
672 1 1 20.812755 7.802145 8.506008
673 1 1 21.002238 7.480810 8.578392
674 1 1 21.333394 7.297554 8.612350
675 1 1 21.332036 6.994827 8.382666
676 1 1 21.468551 6.835083 8.066051
677 1 1 21.758501 6.589638 8.056773
678 1 1 21.994852 6.319752 7.931473
679 1 1 21.890119 6.063594 7.671063
680 1 1 21.586305 5.855138 7.764034
681 1 1 21.207794 5.875113 7.737015
682 1 1 20.950560 5.878062 8.016696
683 1 1 20.625402 6.036981 8.132529
684 1 1 20.365825 5.937508 8.391614
685 1 1 20.232913 6.008901 8.740379
686 1 1 20.434555 6.075775 9.055448
687 1 1 20.492786 6.352215 9.309594
688 1 1 20.814099 6.317599 9.509493
689 1 1 21.103965 6.513900 9.361695
690 1 1 21.462670 6.639299 9.364076
691 1 1 21.736674 6.895753 9.423685
692 1 1 21.972842 6.739212 9.676903
693 1 1 22.166522 6.774245 10.001958
694 1 1 22.301991 6.494084 10.220036
695 1 1 22.316509 6.341863 10.567912
696 1 1 22.231801 6.365428 10.937600
697 1 1 22.375879 6.431337 11.282994
698 1 1 22.657518 6.405340 11.536773
699 1 1 22.983134 6.218601 11.477586
700 1 1 22.883821 5.852071 11.463697
701 1 1 22.885196 5.511196 11.631632
702 1 1 22.715670 5.183489 11.722566
703 1 1 22.492216 4.883527 11.655550
704 1 1 22.223226 4.615459 11.669099
705 1 1 21.898813 4.765932 11.797608
706 1 1 21.814535 4.917237 12.135845
707 1 1 22.073340 5.167549 12.257349
708 1 1 22.323350 4.994447 12.485232
709 1 1 22.557883 4.757776 12.667937
710 1 1 22.857401 4.951833 12.798441
711 1 1 22.838401 5.307226 12.931610
712 1 1 22.564543 5.346377 13.192127
713 1 1 22.488497 5.082342 13.454621
714 1 1 22.331301 5.111159 13.799380
715 1 1 22.310103 5.136630 14.177933
716 1 1 22.498696 5.319652 14.452406
717 1 1 22.576446 5.136321 14.776048
718 1 1 22.460667 5.052849 15.128224
719 1 1 22.491356 5.378442 15.321738
720 1 1 22.739300 5.322273 15.604172
721 1 1 22.624136 5.211252 15.948863
722 1 1 22.473844 5.242941 16.296437
723 1 1 22.105412 5.166277 16.349169
724 1 1 21.791160 4.978478 16.247300
725 1 1 21.730453 4.910204 15.878445
726 1 1 21.631631 4.556098 15.782304
727 1 1 21.597030 4.202177 15.916252
728 1 1 21.647182 3.865029 15.748275
729 1 1 21.959514 3.687989 15.872795
730 1 1 22.291191 3.775653 16.036212
731 1 1 22.223042 3.837425 16.404912
732 1 1 22.254885 4.208696 16.479369
733 1 1 22.508163 4.429882 16.656363
734 1 1 22.878602 4.458336 16.736147
735 1 1 23.235846 4.406568 16.854876
736 1 1 23.381138 4.463636 17.201335
737 1 1 23.368005 4.268062 17.526878
738 1 1 23.227977 3.965410 17.709070
739 1 1 23.365147 3.842916 18.041605
740 1 1 23.421897 3.844156 18.417342
741 1 1 23.679771 3.604948 18.561151
742 1 1 23.639558 3.362309 18.850822
743 1 1 23.544631 3.438601 19.210778
744 1 1 23.539449 3.122846 19.422135
745 1 1 23.644181 2.818258 19.220499
746 1 1 23.522084 2.668076 18.893485
747 1 1 23.520747 2.808317 18.540313
748 1 1 23.373748 2.966110 18.227435
749 1 1 23.588396 3.011180 17.917121
750 1 1 23.783457 2.859770 17.628285
751 1 1 24.086837 2.915610 17.406378
752 1 1 24.444710 2.803145 17.467025
753 1 1 24.804401 2.918618 17.425938
754 1 1 25.017609 2.662448 17.243402
755 1 1 25.157103 2.360346 17.426914
756 1 1 25.426179 2.345947 17.694852
757 1 1 25.644910 2.656484 17.705963
758 1 1 26.001567 2.676786 17.576411
759 1 1 26.303760 2.553555 17.771073
760 1 1 26.591156 2.305277 17.783798
761 1 1 26.957811 2.372730 17.857377
762 1 1 27.309871 2.245029 17.921769
763 1 1 27.567296 1.971069 17.866285
764 1 1 27.419754 1.689996 17.657408
765 1 1 27.630617 1.374765 17.633616
766 1 1 28.001194 1.458321 17.624061
767 1 1 28.252673 1.477785 17.339844
768 1 1 28.287837 1.769776 17.099209
769 1 1 28.327119 2.140829 17.171155
770 1 1 28.133385 2.349554 17.422752
771 1 1 28.186544 2.505352 17.765245
772 1 1 28.193211 2.883815 17.798727
773 1 1 28.200675 3.207320 17.599507
774 1 1 28.233033 3.554777 17.449084
775 1 1 28.341571 3.826975 17.691009
776 1 1 28.298414 3.973601 18.038915
777 1 1 28.393847 4.144735 18.364500
778 1 1 28.637317 4.367354 18.553082
779 1 1 28.735044 4.616361 18.822980
780 1 1 28.694417 4.772469 19.167043
781 1 1 28.921721 5.005995 19.362487
782 1 1 29.276548 4.882511 19.305478
783 1 1 29.567094 4.642301 19.353251
784 1 1 29.769160 4.519031 19.055974
785 1 1 29.731987 4.620244 18.691592
786 1 1 29.791091 4.983319 18.596286
787 1 1 30.010307 5.288571 18.652546
788 1 1 29.851674 5.626613 18.582096
789 1 1 30.005844 5.827679 18.298893
790 1 1 30.156524 6.006041 17.999089
791 1 1 30.260185 6.123385 17.652845
792 1 1 30.319471 6.430736 17.437392
793 1 1 30.101898 6.738870 17.483389
794 1 1 30.289472 7.062367 17.550960
795 1 1 30.658231 6.978892 17.512896
796 1 1 30.920323 7.057184 17.776672
797 1 1 0.197234 7.055816 17.572938
798 1 1 0.485134 7.153685 17.345046
799 1 1 0.590013 7.134550 16.980307
800 1 1 0.879040 7.121813 16.733931
801 1 1 1.185480 6.937630 16.605203
802 1 1 1.378424 6.611428 16.577554
803 1 1 1.314429 6.237624 16.553569
804 1 1 0.984163 6.122387 16.702046
805 1 1 0.798254 5.892168 16.940451
806 1 1 0.753112 5.548898 17.097064
807 1 1 0.794994 5.171214 17.096424
808 1 1 1.140311 5.012828 17.088050
809 1 1 1.505899 5.051867 16.992023
810 1 1 1.586326 5.415859 17.065786
811 1 1 1.738628 5.763386 17.045075
812 1 1 1.799709 6.133635 17.104951
813 1 1 2.045387 6.168598 17.392735
814 1 1 2.250254 6.372022 17.639815
815 1 1 2.603490 6.231960 17.637204
816 1 1 2.911918 6.204389 17.416951
817 1 1 3.136041 5.978155 17.209617
818 1 1 3.490363 5.904700 17.325635