LAMMPS data file for polymer system

22500 atoms
22450 bonds

1 atom types
1 bond types

0.0 31.04385442133693 xlo xhi
0.0 31.04385442133693 ylo yhi
0.0 31.04385442133693 zlo zhi

Masses

1 5.65487

Atoms

1 1 1 4.583331 10.265431 3.045646
2 1 1 4.275466 10.148616 2.855979
3 1 1 4.245654 10.312002 2.514195
4 1 1 4.144953 10.606279 2.295883
5 1 1 3.986309 10.623094 1.950993
6 1 1 4.003405 10.549111 1.578657
7 1 1 4.265360 10.313168 1.436846
8 1 1 4.235917 9.964800 1.585752
9 1 1 4.315604 9.866836 1.944155
10 1 1 4.502124 9.581212 2.111575
11 1 1 4.509223 9.489757 2.480338
12 1 1 4.484971 9.406086 2.850217
13 1 1 4.509877 9.082654 3.048135
14 1 1 4.578480 9.130547 3.418810
15 1 1 4.790874 9.397207 3.586683
16 1 1 5.130540 9.383529 3.756505
17 1 1 5.492439 9.342057 3.648293
18 1 1 5.871050 9.355423 3.677868
19 1 1 6.110200 9.633525 3.777199
20 1 1 6.418383 9.775830 3.606399
21 1 1 6.767635 9.771051 3.456733
22 1 1 6.993066 10.017296 3.275226
23 1 1 7.140734 10.234183 3.550096
24 1 1 7.300435 10.577831 3.521787
25 1 1 7.658343 10.701933 3.551804
26 1 1 7.966419 10.714928 3.329722
27 1 1 8.202876 10.420487 3.372060
28 1 1 8.196838 10.043965 3.423002
29 1 1 8.534900 9.878270 3.371435
30 1 1 8.881603 9.747616 3.455857
31 1 1 8.953075 9.775952 3.827998
32 1 1 8.785720 9.538141 4.072618
33 1 1 8.606203 9.213066 4.153240
34 1 1 8.468444 9.194699 4.506914
35 1 1 8.442270 9.070559 4.865110
36 1 1 8.322326 9.261532 5.170957
37 1 1 8.175112 9.588240 5.297410
38 1 1 7.846303 9.739205 5.413574
39 1 1 7.591126 9.940221 5.610748
40 1 1 7.509863 10.282930 5.468106
41 1 1 7.306228 10.297671 5.147613
42 1 1 7.180299 10.570155 4.914601
43 1 1 7.232793 10.645236 4.545809
44 1 1 7.292121 11.014723 4.479778
45 1 1 7.263292 11.339724 4.674567
46 1 1 7.503447 11.630225 4.722883
47 1 1 7.844665 11.785321 4.785460
48 1 1 7.894925 11.994642 5.098602
49 1 1 8.009447 12.340518 5.206559
50 1 1 8.139784 12.452900 5.545354
51 1 1 8.245542 12.773349 5.720077
52 1 1 7.965224 12.957127 5.899094
53 1 1 7.960478 13.329941 5.972492
54 1 1 8.185565 13.608555 6.099415
55 1 1 8.021521 13.949015 6.139118
56 1 1 7.799586 13.948652 6.447574
57 1 1 7.438987 13.828863 6.443223
58 1 1 7.174299 13.997150 6.657744
59 1 1 7.028861 14.314990 6.508661
60 1 1 7.030753 14.562309 6.220166
61 1 1 7.261291 14.859216 6.164501
62 1 1 7.547697 15.103077 6.110617
63 1 1 7.609857 15.381222 5.859278
64 1 1 7.383033 15.597915 5.644814
65 1 1 7.564351 15.666510 5.317983
66 1 1 7.439355 15.726166 4.964122
67 1 1 7.081193 15.646585 4.865193
68 1 1 6.971061 15.872472 4.580156
69 1 1 6.716350 15.824279 4.302307
70 1 1 6.760355 16.091303 4.035545
71 1 1 6.515605 16.201582 3.766592
72 1 1 6.539311 16.555038 3.629091
73 1 1 6.900596 16.663413 3.582958
74 1 1 6.981817 17.033704 3.556725
75 1 1 6.752138 17.326587 3.480130
76 1 1 6.469795 17.215939 3.251133
77 1 1 6.366452 17.426330 2.952041
78 1 1 6.469357 17.757262 2.796174
79 1 1 6.500013 18.135776 2.782489
80 1 1 6.453323 18.474052 2.615786
81 1 1 6.314186 18.735064 2.377221
82 1 1 6.317211 19.114760 2.392123
83 1 1 5.995954 19.314856 2.426121
84 1 1 5.833595 19.454920 2.112398
85 1 1 5.692521 19.782216 1.980583
86 1 1 5.651315 20.118452 1.808398
87 1 1 5.383739 20.135671 1.539128
88 1 1 5.082856 19.914398 1.469073
89 1 1 5.016588 19.646337 1.208014
90 1 1 5.041624 19.823349 0.872693
91 1 1 4.994643 20.200220 0.885389
92 1 1 4.895915 20.498502 1.099119
93 1 1 4.606401 20.733986 1.170739
94 1 1 4.414878 20.952229 1.415869
95 1 1 4.248747 21.216811 1.199544
96 1 1 4.135220 21.307636 0.848456
97 1 1 4.252142 21.245567 0.492258
98 1 1 4.160019 21.008680 0.209773
99 1 1 4.318580 20.670893 0.281598
100 1 1 4.418223 20.338158 0.435736
101 1 1 4.120077 20.104927 0.469082
102 1 1 4.006832 20.058802 0.828871
103 1 1 3.693486 19.887920 0.959305
104 1 1 3.409375 19.710234 1.138495
105 1 1 3.206630 19.609104 1.443564
106 1 1 3.020755 19.318477 1.602895
107 1 1 2.849364 19.029741 1.780818
108 1 1 2.653440 18.706182 1.817202
109 1 1 2.560181 18.401775 2.024660
110 1 1 2.337666 18.265907 2.301114
111 1 1 2.185642 18.521307 2.537883
112 1 1 1.806184 18.502865 2.529426
113 1 1 1.577900 18.200102 2.504492
114 1 1 1.285427 18.295691 2.281508
115 1 1 1.039338 18.039882 2.145854
116 1 1 0.739359 18.050435 2.378881
117 1 1 0.619123 18.290839 2.647487
118 1 1 0.424052 18.593545 2.526177
119 1 1 0.635684 18.909153 2.528065
120 1 1 0.483045 19.251166 2.463812
121 1 1 0.738309 19.532366 2.450913
122 1 1 0.630450 19.839454 2.647033
123 1 1 0.709991 19.755344 3.008971
124 1 1 0.831342 19.596549 3.332171
125 1 1 1.041070 19.524461 3.640744
126 1 1 1.392741 19.394749 3.578274
127 1 1 1.636076 19.685451 3.604367
128 1 1 1.969115 19.554754 3.732443
129 1 1 2.245174 19.782600 3.860029
130 1 1 2.559096 19.671108 4.042847
131 1 1 2.703236 19.463258 4.326435
132 1 1 2.763672 19.103688 4.433473
133 1 1 2.534106 18.844724 4.276511
134 1 1 2.571018 18.525572 4.479439
135 1 1 2.417980 18.214175 4.634395
136 1 1 2.295387 17.912020 4.829518
137 1 1 2.443999 17.567674 4.768359
138 1 1 2.653202 17.269872 4.877667
139 1 1 2.767303 17.298668 5.238986
140 1 1 2.997700 17.138980 5.495535
141 1 1 3.362119 17.119991 5.389526
142 1 1 3.568161 17.017887 5.692052
143 1 1 3.666558 17.164138 6.028695
144 1 1 3.463474 17.046462 6.327541
145 1 1 3.621985 17.079681 6.671301
146 1 1 3.533958 17.213209 7.016006
147 1 1 3.335086 17.220523 7.339729
148 1 1 2.977120 17.108574 7.278672
149 1 1 2.756337 17.052257 6.974562
150 1 1 2.402047 17.144933 6.873121
151 1 1 2.044373 17.078714 6.983049
152 1 1 1.838851 16.787460 6.851399
153 1 1 1.556843 16.533081 6.838638
154 1 1 1.188458 16.545780 6.931002
155 1 1 0.870163 16.542437 7.138552
156 1 1 0.755797 16.651934 7.483996
157 1 1 0.567904 16.841878 7.754213
158 1 1 0.493928 16.658144 8.078511
159 1 1 0.477457 16.422765 8.376379
160 1 1 0.348559 16.071988 8.445232
161 1 1 0.252635 15.926782 8.783040
162 1 1 0.530158 15.742298 8.965651
163 1 1 0.673580 15.445455 9.154633
164 1 1 0.554447 15.168099 9.385460
165 1 1 0.682266 14.810768 9.366046
166 1 1 0.801960 14.450993 9.340832
167 1 1 0.846052 14.083503 9.254770
168 1 1 0.772299 13.873902 8.946504
169 1 1 0.763772 14.016779 8.594491
170 1 1 1.118434 14.093783 8.481861
171 1 1 1.375899 14.285393 8.685324
172 1 1 1.472742 14.484417 8.994211
173 1 1 1.800723 14.550377 9.174427
174 1 1 2.044786 14.282639 9.059756
175 1 1 2.082579 13.952455 9.244013
176 1 1 2.307401 13.717553 9.440675
177 1 1 2.677178 13.638429 9.403199
178 1 1 2.718690 13.296899 9.564551
179 1 1 2.884356 13.145617 9.871257
180 1 1 2.737824 13.046320 10.207513
181 1 1 2.845978 13.112296 10.565772
182 1 1 2.579732 13.167999 10.831121
183 1 1 2.535376 12.945984 11.136313
184 1 1 2.572586 12.578073 11.223815
185 1 1 2.668197 12.541580 11.589775
186 1 1 3.026061 12.475667 11.699270
187 1 1 3.102136 12.216584 11.966644
188 1 1 3.169196 12.110577 12.325343
189 1 1 3.298789 12.396914 12.538924
190 1 1 3.566998 12.575120 12.337165
191 1 1 3.716959 12.802736 12.072397
192 1 1 4.070153 12.926203 12.005988
193 1 1 4.373959 12.951007 11.779081
194 1 1 4.476452 12.610452 11.645226
195 1 1 4.684292 12.439657 11.913613
196 1 1 4.436624 12.302866 12.167284
197 1 1 4.114301 12.108224 12.116077
198 1 1 3.930733 11.788005 12.025732
199 1 1 3.656755 11.700220 12.273986
200 1 1 3.833448 11.607957 12.597509
201 1 1 3.624234 11.713401 12.896693
202 1 1 3.265039 11.778837 13.002035
203 1 1 3.138906 12.126365 13.089869
204 1 1 2.791298 12.180366 13.233580
205 1 1 2.808837 12.487443 13.456730
206 1 1 2.509082 12.705710 13.373625
207 1 1 2.256987 12.802789 13.106373
208 1 1 1.964621 12.981204 13.270964
209 1 1 1.834709 12.785017 13.569349
210 1 1 1.470308 12.761890 13.674596
211 1 1 1.161603 12.608284 13.514889
212 1 1 0.881644 12.359565 13.450377
213 1 1 0.883816 11.984605 13.512025
214 1 1 0.783143 11.860806 13.856901
215 1 1 0.853459 11.948902 14.219798
216 1 1 0.865447 12.287927 14.391025
217 1 1 1.039687 12.575279 14.213628
218 1 1 0.911478 12.902886 14.069975
219 1 1 1.038843 13.255379 14.132639
220 1 1 0.839156 13.550285 14.265135
221 1 1 1.066657 13.789477 14.453364
222 1 1 1.228441 14.106392 14.319981
223 1 1 1.505232 14.349560 14.413018
224 1 1 1.816649 14.516362 14.553005
225 1 1 2.174317 14.633700 14.605021
226 1 1 2.419228 14.439639 14.388782
227 1 1 2.366522 14.067283 14.443307
228 1 1 2.037827 13.876803 14.452073
229 1 1 1.809702 13.731810 14.719161
230 1 1 1.700867 13.377195 14.801643
231 1 1 1.517222 13.279105 15.119531
232 1 1 1.204730 13.493929 15.144014
233 1 1 0.950192 13.564280 15.417255
234 1 1 0.664744 13.313456 15.414615
235 1 1 0.475072 13.300351 15.085597
236 1 1 0.187818 13.448700 14.885903
237 1 1 30.926538 13.572827 14.696468
238 1 1 30.701701 13.266792 14.682656
239 1 1 30.410594 13.354748 14.454795
240 1 1 30.399133 13.683833 14.265132
241 1 1 30.656916 13.895601 14.083191
242 1 1 30.951304 14.135861 14.086513
243 1 1 0.009342 14.494518 14.159884
244 1 1 0.088460 14.820947 13.982164
245 1 1 30.989382 14.815776 14.334220
246 1 1 30.773309 14.990551 14.593385
247 1 1 30.649500 15.312036 14.753755
248 1 1 30.877499 15.615618 14.737794
249 1 1 30.878471 15.986012 14.822688
250 1 1 0.032231 15.752123 15.047730
251 1 1 0.338034 15.631164 14.857325
252 1 1 0.294284 15.259477 14.791490
253 1 1 0.606343 15.072191 14.900775
254 1 1 0.707849 15.202679 15.242929
255 1 1 0.723586 15.199646 15.622591
256 1 1 0.634465 15.189219 15.991845
257 1 1 0.421400 14.980817 16.227583
258 1 1 0.347173 14.868179 16.582833
259 1 1 0.466679 15.048509 16.895243
260 1 1 0.294865 14.921378 17.209436
261 1 1 0.005350 14.693877 17.115500
262 1 1 30.839247 14.412782 16.969542
263 1 1 30.870700 14.598177 17.299754
264 1 1 30.614041 14.498061 17.561484
265 1 1 30.344647 14.491850 17.829417
266 1 1 30.053703 14.623504 18.035377
267 1 1 30.049880 14.625119 18.415354
268 1 1 29.720839 14.693681 18.592641
269 1 1 29.490709 14.915114 18.386709
270 1 1 29.253164 15.181021 18.518107
271 1 1 29.101348 15.528649 18.495597
272 1 1 29.034215 15.766338 18.206811
273 1 1 28.872590 15.569915 17.924507
274 1 1 28.539211 15.451879 17.785490
275 1 1 28.454856 15.097979 17.675768
276 1 1 28.614103 14.837838 17.449125
277 1 1 28.815449 14.536462 17.334965
278 1 1 29.071616 14.328429 17.523382
279 1 1 28.880767 14.148973 17.798649
280 1 1 28.584812 14.190954 18.033273
281 1 1 28.333862 13.974864 18.219630
282 1 1 27.955573 13.940403 18.209137
283 1 1 27.862761 13.800056 18.549855
284 1 1 28.117159 13.624706 18.771065
285 1 1 28.312971 13.377741 18.983352
286 1 1 28.692964 13.380147 18.983303
287 1 1 28.837044 13.054465 19.115864
288 1 1 29.077347 12.893829 19.362542
289 1 1 29.247796 12.640297 19.588527
290 1 1 29.385865 12.352950 19.381721
291 1 1 29.688385 12.321667 19.153899
292 1 1 29.890914 12.269667 18.836602
293 1 1 29.932073 12.285399 18.459165
294 1 1 29.609684 12.179207 18.288319
295 1 1 29.507083 11.836954 18.417686
296 1 1 29.359093 11.848173 18.767504
297 1 1 29.375443 11.664299 19.099653
298 1 1 29.447800 11.517684 19.442681
299 1 1 29.256690 11.316133 19.702015
300 1 1 28.886319 11.282867 19.623794
301 1 1 28.538715 11.154800 19.539115
302 1 1 28.242582 10.945600 19.425360
303 1 1 28.134887 10.624774 19.252523
304 1 1 28.283601 10.548021 18.911358
305 1 1 28.197126 10.711004 18.579155
306 1 1 28.364033 10.497693 18.312621
307 1 1 28.455982 10.603821 17.959518
308 1 1 28.616719 10.718407 17.634812
309 1 1 28.917257 10.809652 17.420916
310 1 1 28.916395 10.730651 17.049220
311 1 1 28.611795 10.763306 16.824382
312 1 1 28.346811 10.491240 16.837194
313 1 1 28.442425 10.206062 16.604962
314 1 1 28.460113 10.183656 16.226036
315 1 1 28.467963 9.906692 15.965980
316 1 1 28.306875 9.685405 15.702384
317 1 1 28.443657 9.761738 15.356170
318 1 1 28.312468 9.568146 15.056651
319 1 1 28.496591 9.421664 14.758253
320 1 1 28.641461 9.581749 14.445546
321 1 1 28.893568 9.823405 14.295732
322 1 1 29.208053 10.036166 14.310944
323 1 1 29.472313 10.241346 14.491133
324 1 1 29.651979 10.562393 14.586262
325 1 1 29.827036 10.752024 14.865179
326 1 1 29.889125 11.109610 14.977772
327 1 1 29.740619 11.239736 15.302446
328 1 1 29.586962 11.309176 15.642986
329 1 1 29.849990 11.203302 15.895982
330 1 1 30.145317 11.221831 16.134390
331 1 1 30.464852 11.076533 16.279944
332 1 1 30.467914 10.991228 16.650233
333 1 1 30.617593 11.103232 16.981067
334 1 1 30.912928 11.331835 16.910944
335 1 1 0.106908 11.118733 17.116911
336 1 1 0.323150 11.344932 17.332488
337 1 1 0.433079 11.175601 17.654423
338 1 1 0.744414 10.965066 17.710510
339 1 1 0.826598 10.779328 18.031675
340 1 1 0.628111 10.853826 18.347036
341 1 1 0.251325 10.869293 18.393872
342 1 1 0.093383 11.211685 18.441003
343 1 1 30.890373 11.338907 18.700372
344 1 1 30.735920 11.622877 18.500608
345 1 1 30.704082 11.923720 18.730563
346 1 1 30.876708 12.152877 18.979736
347 1 1 30.870673 12.514170 19.097341
348 1 1 30.865204 12.873851 18.974867
349 1 1 0.155715 13.005850 19.098058
350 1 1 0.083881 12.677962 19.276185
351 1 1 0.196728 12.400465 19.042389
352 1 1 0.032172 12.179125 18.780988
353 1 1 0.164952 11.927238 18.529349
354 1 1 0.475146 11.716195 18.589687
355 1 1 0.783410 11.908349 18.701265
356 1 1 1.138260 12.013391 18.614964
357 1 1 1.229796 12.198469 18.295954
358 1 1 1.404046 12.440922 18.060893
359 1 1 1.594166 12.748431 18.177909
360 1 1 1.357208 13.007993 18.322402
361 1 1 1.193203 13.211752 18.046750
362 1 1 1.115036 13.521777 17.841385
363 1 1 1.234997 13.877020 17.779649
364 1 1 1.480128 14.122729 17.934369
365 1 1 1.790719 14.175966 18.146734
366 1 1 1.798900 13.875749 18.379550
367 1 1 1.489875 13.694846 18.506742
368 1 1 1.444568 13.774653 18.875494
369 1 1 1.681554 14.010895 19.055569
370 1 1 1.602582 13.973415 19.425378
371 1 1 1.371347 14.008691 19.724854
372 1 1 1.045900 14.065405 19.912652
373 1 1 0.919572 14.410823 20.008191
374 1 1 0.720730 14.629771 19.769605
375 1 1 0.375119 14.787551 19.761932
376 1 1 0.009149 14.863174 19.830833
377 1 1 30.968811 14.595893 20.087488
378 1 1 30.710809 14.516879 20.355055
379 1 1 30.829291 14.651495 20.690078
380 1 1 30.535258 14.695761 20.926690
381 1 1 30.168902 14.795534 20.911578
382 1 1 29.983214 14.887559 20.593064
383 1 1 29.873395 15.198568 20.404349
384 1 1 29.525831 15.340173 20.344791
385 1 1 29.464728 15.654129 20.549970
386 1 1 29.600442 15.577818 20.896608
387 1 1 29.978955 15.572429 20.929757
388 1 1 30.248644 15.840081 20.924268
389 1 1 30.489126 16.120062 21.014707
390 1 1 30.568393 16.431796 20.812374
391 1 1 30.840838 16.595820 20.604360
392 1 1 30.940629 16.916493 20.426565
393 1 1 0.052743 17.246475 20.532327
394 1 1 0.042278 16.893082 20.393030
395 1 1 0.226119 16.572677 20.303905
396 1 1 0.580147 16.577671 20.441887
397 1 1 0.648600 16.241038 20.604344
398 1 1 0.588782 16.181567 20.974864
399 1 1 0.570433 16.308067 21.332720
400 1 1 0.784435 16.409563 21.629876
401 1 1 1.067784 16.373106 21.880444
402 1 1 1.093831 16.218105 22.226415
403 1 1 1.341574 15.940392 22.303221
404 1 1 1.224830 15.622073 22.131629
405 1 1 0.866743 15.611698 22.004877
406 1 1 0.559850 15.829212 21.950982
407 1 1 0.443058 15.974345 22.282186
408 1 1 0.125000 15.874271 22.464463
409 1 1 30.823218 15.741980 22.550685
410 1 1 30.930756 15.705543 22.188045
411 1 1 31.012227 15.662778 21.819353
412 1 1 30.770562 15.417491 21.658628
413 1 1 30.405098 15.388114 21.758495
414 1 1 30.332334 15.029361 21.860483
415 1 1 30.519293 14.803770 22.102465
416 1 1 30.749910 14.735463 22.396659
417 1 1 30.925902 14.917688 22.679892
418 1 1 0.169690 14.674349 22.630414
419 1 1 0.156559 15.015847 22.796568
420 1 1 0.220236 15.384468 22.863380
421 1 1 31.025632 15.347970 23.156988
422 1 1 30.798339 15.382135 23.459594
423 1 1 30.498497 15.289832 23.674012
424 1 1 30.545802 15.358375 24.044774
425 1 1 30.907040 15.278623 24.131646
426 1 1 0.066752 15.597293 24.094094
427 1 1 0.054594 15.943472 24.250338
428 1 1 0.246535 16.270359 24.276861
429 1 1 31.002928 16.447981 24.450690
430 1 1 30.968610 16.237693 24.765335
431 1 1 0.239419 16.110333 24.936118
432 1 1 0.044636 15.815646 25.076185
433 1 1 30.901250 15.528303 25.239816
434 1 1 30.791232 15.197571 25.391187
435 1 1 30.812194 15.218985 25.770003
436 1 1 30.996772 15.336427 26.080710
437 1 1 30.727804 15.375048 26.346350
438 1 1 0.029377 15.217920 26.366119
439 1 1 0.299585 15.270482 26.104156
440 1 1 0.621147 15.082206 26.178656
441 1 1 0.792774 15.171702 26.505665
442 1 1 0.946738 15.492226 26.639679
443 1 1 0.876421 15.815218 26.452245
444 1 1 0.985732 16.178130 26.479559
445 1 1 1.264424 16.434390 26.512147
446 1 1 1.591658 16.348513 26.685188
447 1 1 1.568953 16.485765 27.038807
448 1 1 1.758444 16.801973 27.131035
449 1 1 1.895005 17.042223 27.391863
450 1 1 2.029114 17.169723 27.723764
451 1 1 2.962157 26.207113 29.710327
452 1 1 3.292203 26.153964 29.891006
453 1 1 3.412082 26.501978 29.985428
454 1 1 3.771773 26.539223 29.868658
455 1 1 4.030979 26.815673 29.840597
456 1 1 4.312565 26.813244 29.585443
457 1 1 4.257113 26.749574 29.214942
458 1 1 3.908179 26.605117 29.172784
459 1 1 3.588254 26.485601 29.006158
460 1 1 3.309521 26.439597 29.260306
461 1 1 3.125303 26.771954 29.258612
462 1 1 2.887879 27.054664 29.348638
463 1 1 2.542375 26.943723 29.461417
464 1 1 2.212859 27.095971 29.348992
465 1 1 1.934761 27.021453 29.100982
466 1 1 1.632036 27.200431 28.957023
467 1 1 1.273486 27.229673 28.834603
468 1 1 0.997817 27.442814 28.986185
469 1 1 0.629101 27.386829 28.913283
470 1 1 0.442301 27.138837 28.694182
471 1 1 0.341986 26.989746 28.359355
472 1 1 0.539622 26.835752 28.073652
473 1 1 0.782969 26.739416 27.798150
474 1 1 0.659909 26.568970 27.481599
475 1 1 0.920577 26.602046 27.207084
476 1 1 1.223352 26.640845 26.980761
477 1 1 1.259375 26.891828 26.697725
478 1 1 1.416609 27.057547 26.394056
479 1 1 1.789433 27.123764 26.362158
480 1 1 2.071419 26.922152 26.517837
481 1 1 2.078970 26.587740 26.698146
482 1 1 2.082113 26.270493 26.488994
483 1 1 2.091644 26.051656 26.178479
484 1 1 2.369129 26.155353 25.940468
485 1 1 2.702602 26.158561 25.758299
486 1 1 3.040828 26.232613 25.601712
487 1 1 3.255341 26.545225 25.627367
488 1 1 3.325273 26.644374 25.987477
489 1 1 3.310586 26.897689 26.270348
490 1 1 2.999546 26.904252 26.488547
491 1 1 2.776229 26.922672 26.795452
492 1 1 2.767163 27.147415 27.101733
493 1 1 2.709696 27.516041 27.173929
494 1 1 2.934173 27.728371 26.952738
495 1 1 2.913777 28.078995 27.097814
496 1 1 2.577965 28.127720 27.268859
497 1 1 2.644535 28.182173 27.638998
498 1 1 2.491002 28.153366 27.985406
499 1 1 2.306124 28.011381 28.285506
500 1 1 2.340861 27.663369 28.434102
501 1 1 2.498464 27.371568 28.619612
502 1 1 2.850943 27.475291 28.716567
503 1 1 3.154745 27.614812 28.535907
504 1 1 3.356776 27.821660 28.782478
505 1 1 3.574938 27.618271 29.017932
506 1 1 3.899979 27.687222 29.202306
507 1 1 4.267630 27.591802 29.213593
508 1 1 4.419272 27.599242 29.561946
509 1 1 4.625211 27.552158 29.877813
510 1 1 4.589669 27.198569 30.012392
511 1 1 4.813952 26.900331 29.940618
512 1 1 4.927169 26.588413 29.755446
513 1 1 5.043488 26.267964 29.923322
514 1 1 5.246861 25.947241 29.936619
515 1 1 5.561386 25.996603 30.144074
516 1 1 5.682745 25.966129 30.502882
517 1 1 6.049728 25.903372 30.578943
518 1 1 6.222736 25.672182 30.331922
519 1 1 6.551625 25.690194 30.142429
520 1 1 6.562236 25.822481 29.786357
521 1 1 6.255077 26.029765 29.702174
522 1 1 6.033540 26.211582 29.452647
523 1 1 6.186431 26.386872 29.152150
524 1 1 6.297185 26.124229 28.900849
525 1 1 6.114081 26.105285 28.568413
526 1 1 6.236703 26.106605 28.208743
527 1 1 6.141620 26.383528 27.966518
528 1 1 6.092189 26.339560 27.592321
529 1 1 5.823571 26.147961 27.403816
530 1 1 5.834008 25.788631 27.280638
531 1 1 6.007320 25.551227 27.521475
532 1 1 5.818230 25.438863 27.831344
533 1 1 5.880743 25.414235 28.205357
534 1 1 5.555924 25.426703 28.402175
535 1 1 5.231671 25.232767 28.361568
536 1 1 4.988136 25.172327 28.646941
537 1 1 4.792182 24.848440 28.680093
538 1 1 4.482280 24.644969 28.596663
539 1 1 4.189057 24.747730 28.377893
540 1 1 4.025406 24.843138 28.048476
541 1 1 3.847728 25.178328 28.070344
542 1 1 3.793186 25.495875 27.868877
543 1 1 3.846794 25.869740 27.910726
544 1 1 3.662316 26.167144 28.058776
545 1 1 3.772013 26.425400 28.315038
546 1 1 3.639991 26.780110 28.281111
547 1 1 3.808177 27.100383 28.397465
548 1 1 3.884875 27.466262 28.465658
549 1 1 4.192848 27.541604 28.256191
550 1 1 4.443010 27.806721 28.363578
551 1 1 4.386182 28.182259 28.375511
552 1 1 4.205919 28.403156 28.626727
553 1 1 3.970106 28.582548 28.864657
554 1 1 3.789666 28.865791 29.042462
555 1 1 3.862756 29.235121 28.990949
556 1 1 4.100479 29.488450 29.144937
557 1 1 4.355618 29.680618 28.939084
558 1 1 4.720558 29.786538 28.939147
559 1 1 4.759558 30.098293 28.725400
560 1 1 4.947349 30.019343 28.404618
561 1 1 5.148726 29.924775 28.096553
562 1 1 5.226924 30.156848 27.805989
563 1 1 5.431747 30.458752 27.912295
564 1 1 5.658968 30.380556 28.206669
565 1 1 5.533286 30.410854 28.564000
566 1 1 5.247673 30.460710 28.809641
567 1 1 4.968819 30.699127 28.908626
568 1 1 4.749996 30.883204 28.658363
569 1 1 4.411288 31.039969 28.586934
570 1 1 4.509094 0.309978 28.396346
571 1 1 4.565656 0.126926 28.068180
572 1 1 4.263576 30.966126 27.962049
573 1 1 4.156488 30.693521 27.719936
574 1 1 3.820571 30.671973 27.543596
575 1 1 3.508156 30.718531 27.332340
576 1 1 3.405253 30.838133 26.986643
577 1 1 3.406602 0.135212 26.818826
578 1 1 3.501899 0.219977 27.176783
579 1 1 3.435195 0.267064 27.547907
580 1 1 3.229431 0.059529 27.790787
581 1 1 3.043449 30.778301 27.855069
582 1 1 3.289712 30.501853 27.940690
583 1 1 3.251826 30.143200 27.820972
584 1 1 3.338664 29.809458 27.980584
585 1 1 3.313711 29.677080 28.335905
586 1 1 2.967007 29.565331 28.444110
587 1 1 2.616204 29.524261 28.303928
588 1 1 2.395512 29.775887 28.123985
589 1 1 2.306907 30.111833 28.277899
590 1 1 2.533634 30.371066 28.117296
591 1 1 2.347724 30.659646 27.954326
592 1 1 2.391354 30.962194 27.728582
593 1 1 2.385975 0.056788 28.082422
594 1 1 2.146120 0.256346 28.299324
595 1 1 1.873593 0.380171 28.533411
596 1 1 1.667835 0.697885 28.499932
597 1 1 1.860019 1.008281 28.605382
598 1 1 1.788411 1.381346 28.615127
599 1 1 1.724064 1.742894 28.712814
600 1 1 1.673861 2.105400 28.610495
601 1 1 1.350505 2.208455 28.439556
602 1 1 1.024007 2.147672 28.254882
603 1 1 0.682449 1.982036 28.272279
604 1 1 0.754356 1.618802 28.357663
605 1 1 0.755432 1.492239 28.715966
606 1 1 0.479266 1.369316 28.946231
607 1 1 0.523490 0.992252 28.962571
608 1 1 0.344028 0.779398 28.703946
609 1 1 0.357862 0.401701 28.743368
610 1 1 31.026870 0.339758 28.736082
611 1 1 30.916001 0.431475 29.087786
612 1 1 30.972285 0.709721 29.340395
613 1 1 0.276523 0.571129 29.403826
614 1 1 0.349399 0.347041 29.701943
615 1 1 0.205851 0.291863 30.049433
616 1 1 0.341600 0.172931 30.383839
617 1 1 0.701574 0.279511 30.442656
618 1 1 0.692888 0.659342 30.435364
619 1 1 0.753160 0.899638 30.147224
620 1 1 1.044942 0.766106 29.943675
621 1 1 1.084723 0.933525 29.604871
622 1 1 1.308907 0.950926 29.298540
623 1 1 1.513694 0.661179 29.162490
624 1 1 1.789858 0.474697 29.345132
625 1 1 1.952606 0.730117 29.574639
626 1 1 1.931900 0.950135 29.883773
627 1 1 1.726332 1.097137 30.167555
628 1 1 1.595377 1.357809 30.411072
629 1 1 1.533642 1.331497 30.785100
630 1 1 1.455554 1.267424 0.107574
631 1 1 1.387033 1.628769 0.203147
632 1 1 1.020146 1.710597 0.258809
633 1 1 0.988706 2.075385 0.157116
634 1 1 1.315392 2.255593 0.084998
635 1 1 1.396264 2.513268 0.352323
636 1 1 1.357603 2.621003 31.033826
637 1 1 1.615655 2.792530 30.813855
638 1 1 1.483810 3.090457 30.618263
639 1 1 1.510734 3.426744 30.443373
640 1 1 1.683298 3.646186 30.185562
641 1 1 1.943443 3.558293 29.922885
642 1 1 2.035859 3.497643 29.559318
643 1 1 2.147089 3.183277 29.377104
644 1 1 1.934462 2.886154 29.481546
645 1 1 1.643354 2.743995 29.680158
646 1 1 1.351281 2.818132 29.911668
647 1 1 0.995383 2.883047 30.027956
648 1 1 0.806800 2.598110 30.194231
649 1 1 0.474444 2.414339 30.181279
650 1 1 0.220643 2.432410 30.463518
651 1 1 30.977749 2.183541 30.479002
652 1 1 30.661296 2.140835 30.684996
653 1 1 30.359483 1.921151 30.756048
654 1 1 30.256207 2.089396 0.036890
655 1 1 30.220574 2.375467 0.284465
656 1 1 30.071723 2.451462 0.625740
657 1 1 29.915304 2.124911 0.741057
658 1 1 29.761004 1.782849 0.800927
659 1 1 29.902731 1.494263 1.003489
660 1 1 29.929252 1.203119 1.246248
661 1 1 29.751358 1.086806 1.561248
662 1 1 29.851428 1.042991 1.925207
663 1 1 30.107387 0.762150 1.928825
664 1 1 29.997933 0.456720 1.731006
665 1 1 29.743232 0.269011 1.520548
666 1 1 29.426981 0.148551 1.347704
667 1 1 29.231199 30.903149 1.497372
668 1 1 29.188559 30.786917 1.138106
669 1 1 29.424802 30.802948 0.840899
670 1 1 29.316027 0.107395 0.734814
671 1 1 29.069149 0.238272 0.477282
672 1 1 29.080301 0.354033 0.115516
673 1 1 29.233008 0.182994 30.856342
674 1 1 29.014161 0.304968 30.570634
675 1 1 29.231485 0.556751 30.386854
676 1 1 29.503501 0.529073 30.122957
677 1 1 29.576345 0.409344 29.769745
678 1 1 29.550118 0.342358 29.396616
679 1 1 29.843913 0.141224 29.263841
680 1 1 30.106664 31.012932 29.477682
681 1 1 29.827208 30.762316 29.536808
682 1 1 29.506304 30.965278 29.551873
683 1 1 29.154700 30.950647 29.408484
684 1 1 29.047080 0.120368 29.113182
685 1 1 28.808123 0.394542 29.003053
686 1 1 28.883960 0.713220 29.195649
687 1 1 28.800996 0.934678 29.493094
688 1 1 28.784550 0.845855 29.862202
689 1 1 28.558990 0.608376 30.054883
690 1 1 28.436718 0.538096 30.407743
691 1 1 28.148628 0.464008 30.644207
692 1 1 27.866593 0.695449 30.537946
693 1 1 27.895849 0.881452 30.207874
694 1 1 27.655946 1.127930 30.046336
695 1 1 27.794456 1.326132 29.753196
696 1 1 27.815030 1.695588 29.666715
697 1 1 27.505592 1.779744 29.462838
698 1 1 27.142886 1.862398 29.385297
699 1 1 27.080509 2.202909 29.228577
700 1 1 27.233354 2.550800 29.225395
701 1 1 27.610659 2.513256 29.200269
702 1 1 27.670088 2.347163 28.863696
703 1 1 27.866678 2.230395 28.560187
704 1 1 28.008419 1.961861 28.331716
705 1 1 28.192005 1.652677 28.208827
706 1 1 28.275833 1.294288 28.114330
707 1 1 28.491518 1.019852 27.964113
708 1 1 28.753242 1.201901 27.757330
709 1 1 28.975115 1.484795 27.880387
710 1 1 28.954245 1.475597 28.259702
711 1 1 28.699903 1.439929 28.539769
712 1 1 28.477120 1.544783 28.829206
713 1 1 28.119264 1.671054 28.849069
714 1 1 27.740038 1.685333 28.868657
715 1 1 27.490978 1.423633 28.750836
716 1 1 27.284987 1.137306 28.892202
717 1 1 27.258624 1.087897 29.268053
718 1 1 27.144159 1.149820 29.625073
719 1 1 26.799996 1.256908 29.745420
720 1 1 26.515544 1.428262 29.930149
721 1 1 26.592574 1.791628 30.010348
722 1 1 26.447831 1.913611 30.339847
723 1 1 26.224527 1.660549 30.514474
724 1 1 26.428011 1.362929 30.634542
725 1 1 26.339815 0.997144 30.687670
726 1 1 26.248937 0.909932 0.002334
727 1 1 26.431576 1.147934 0.235568
728 1 1 26.762800 1.250986 0.080420
729 1 1 26.982131 1.408712 0.347659
730 1 1 27.216486 1.199060 0.561022
731 1 1 27.398412 0.872949 0.631408
732 1 1 27.407096 0.501720 0.550699
733 1 1 27.365172 0.154534 0.402025
734 1 1 27.441018 30.834742 0.321969
735 1 1 27.776177 30.882846 0.494463
736 1 1 28.090232 30.895705 0.280912
737 1 1 28.388065 0.047310 0.148657
738 1 1 28.582116 30.836492 30.987850
739 1 1 28.360212 30.613327 30.774882
740 1 1 28.093479 30.346288 30.730790
741 1 1 27.863912 30.177171 30.981984
742 1 1 27.562077 29.947076 30.963224
743 1 1 27.368815 29.936274 0.246376
744 1 1 27.174427 30.173987 0.470218
745 1 1 27.044273 30.413321 0.735132
746 1 1 26.733538 30.613832 0.647732
747 1 1 26.484625 30.811145 0.439141
748 1 1 26.419886 30.747140 0.070207
749 1 1 26.046591 30.688483 0.030075
750 1 1 25.724679 30.596149 0.209648
751 1 1 25.578306 30.249477 0.156791
752 1 1 25.306540 29.992079 0.091300
753 1 1 24.948992 30.102635 0.157156
754 1 1 24.772038 30.060921 30.867323
755 1 1 24.967911 29.858665 30.612124
756 1 1 25.248177 30.034820 30.425523
757 1 1 25.508102 30.205936 30.643601
758 1 1 25.688406 30.339621 30.950226
759 1 1 25.724337 30.713889 31.005297
760 1 1 25.931387 30.935692 30.776532
761 1 1 26.217107 0.005271 30.999908
762 1 1 26.198517 0.378041 30.928517
763 1 1 26.446557 0.252211 0.143590
764 1 1 26.252927 0.323508 0.462689
765 1 1 25.939600 0.531476 0.408144
766 1 1 25.610000 0.462180 0.584104
767 1 1 25.585006 0.249309 0.897889
768 1 1 25.639926 30.917480 0.913568
769 1 1 25.422458 30.823147 1.210567
770 1 1 25.223252 30.523036 1.089527
771 1 1 25.126864 30.572328 0.725275
772 1 1 25.103369 30.759157 0.395210
773 1 1 24.982264 0.027479 0.215545
774 1 1 24.789464 0.238267 31.008807
775 1 1 24.728272 0.443069 30.694622
776 1 1 24.856374 0.800749 30.687229
777 1 1 24.839113 1.157521 30.816905
778 1 1 24.530061 1.356797 30.721115
779 1 1 24.429841 1.642700 30.950496
780 1 1 24.086862 1.806276 30.947666
781 1 1 24.296265 2.056034 0.099187
782 1 1 24.403156 2.414638 0.033024
783 1 1 24.723136 2.507768 30.894286
784 1 1 24.437008 2.538959 30.646178
785 1 1 24.208832 2.736787 30.415527
786 1 1 24.216903 3.062356 30.219721
787 1 1 24.018260 3.327744 30.033952
788 1 1 24.121238 3.352958 29.669042
789 1 1 23.910427 3.117482 29.458068
790 1 1 23.757481 3.022528 29.123418
791 1 1 23.608342 3.189096 28.816151
792 1 1 23.904462 3.328983 28.623422
793 1 1 23.896368 3.570367 28.330049
794 1 1 23.841633 3.350878 28.024715
795 1 1 23.573300 3.088748 28.085427
796 1 1 23.252344 2.995442 28.266206
797 1 1 23.132572 2.657273 28.140920
798 1 1 23.196221 2.496056 27.802751
799 1 1 23.258116 2.123693 27.758997
800 1 1 22.949754 1.938702 27.881843
801 1 1 22.605699 1.803581 27.793702
802 1 1 22.313985 1.659341 27.597495
803 1 1 22.473214 1.503206 27.289814
804 1 1 22.332070 1.452588 26.940649
805 1 1 22.536280 1.577349 26.645466
806 1 1 22.672935 1.308822 26.413909
807 1 1 22.914946 1.265112 26.124219
808 1 1 22.831840 1.528341 25.863060
809 1 1 22.632326 1.342818 25.598154
810 1 1 22.490515 1.023945 25.748520
811 1 1 22.577885 0.670986 25.638128
812 1 1 22.871202 0.558998 25.424063