LAMMPS data file for polymer system

22500 atoms
22450 bonds

1 atom types
1 bond types

0.0 31.04385442133693 xlo xhi
0.0 31.04385442133693 ylo yhi
0.0 31.04385442133693 zlo zhi

Masses

1 5.65487

Atoms

1 1 1 4.588028 17.353030 24.531966
2 1 1 4.450168 17.578586 24.258984
3 1 1 4.366777 17.751067 23.930813
4 1 1 4.409153 18.094013 23.772723
5 1 1 4.295293 18.451452 23.712114
6 1 1 4.073632 18.451241 23.403461
7 1 1 4.259272 18.234248 23.152759
8 1 1 4.264055 18.152370 22.781715
9 1 1 4.165474 18.459608 22.581000
10 1 1 4.051967 18.785264 22.740576
11 1 1 3.835576 19.056143 22.896137
12 1 1 3.490849 19.209085 22.849531
13 1 1 3.377514 19.567014 22.908202
14 1 1 3.406191 19.901600 23.086050
15 1 1 3.663049 19.982356 23.354196
16 1 1 3.757023 20.350552 23.354588
17 1 1 3.472501 20.597443 23.304663
18 1 1 3.293893 20.816509 23.558651
19 1 1 3.485811 20.904426 23.874622
20 1 1 3.627242 20.626648 24.091962
21 1 1 3.662171 20.405180 24.398771
22 1 1 3.644264 20.253718 24.746821
23 1 1 3.738369 20.430781 25.069610
24 1 1 3.928379 20.478621 25.395198
25 1 1 3.901774 20.409923 25.767988
26 1 1 4.105263 20.434238 26.087990
27 1 1 4.348598 20.530125 26.363659
28 1 1 4.607901 20.778127 26.238531
29 1 1 4.949261 20.901757 26.126329
30 1 1 5.299288 20.868533 25.982186
31 1 1 5.606287 20.687157 26.113541
32 1 1 5.887384 20.768117 26.356090
33 1 1 6.067318 20.997036 26.600261
34 1 1 6.147172 21.180014 26.923591
35 1 1 6.025805 21.540111 26.924428
36 1 1 5.684397 21.654312 26.802779
37 1 1 5.314367 21.632841 26.719010
38 1 1 5.230540 21.266876 26.660337
39 1 1 4.953673 21.031198 26.770795
40 1 1 5.014000 20.658688 26.815486
41 1 1 5.173855 20.398513 26.589310
42 1 1 5.300200 20.101913 26.388151
43 1 1 5.539371 19.844820 26.533413
44 1 1 5.748133 19.535168 26.463173
45 1 1 6.089613 19.381450 26.398656
46 1 1 6.331506 19.558479 26.165100
47 1 1 6.184120 19.803322 25.914642
48 1 1 5.833634 19.827356 25.769792
49 1 1 5.634121 19.919919 25.459910
50 1 1 5.290746 19.767586 25.517256
51 1 1 5.156245 19.695838 25.169173
52 1 1 5.332698 19.708377 24.832860
53 1 1 5.568898 19.582580 24.563073
54 1 1 5.594910 19.229836 24.424168
55 1 1 5.403365 18.974137 24.218429
56 1 1 5.317663 18.607576 24.270280
57 1 1 5.503395 18.408361 24.535265
58 1 1 5.769492 18.158091 24.639941
59 1 1 6.149119 18.163097 24.623857
60 1 1 6.384119 17.946645 24.418130
61 1 1 6.662969 17.697198 24.351656
62 1 1 6.936085 17.683000 24.087827
63 1 1 6.923142 17.375268 23.865266
64 1 1 7.251345 17.251331 23.719246
65 1 1 7.567836 17.388808 23.560080
66 1 1 7.835755 17.518231 23.323714
67 1 1 8.085478 17.470486 23.041298
68 1 1 8.460634 17.482745 23.100528
69 1 1 8.574845 17.742196 23.353591
70 1 1 8.766102 18.003213 23.552817
71 1 1 8.528880 18.267707 23.687609
72 1 1 8.310993 18.560409 23.581542
73 1 1 8.019045 18.489575 23.348842
74 1 1 7.698825 18.291801 23.296460
75 1 1 7.421011 18.548600 23.332148
76 1 1 7.064385 18.652633 23.412119
77 1 1 6.789750 18.872976 23.555033
78 1 1 6.449388 18.837466 23.720237
79 1 1 6.431218 18.683549 24.067194
80 1 1 6.495560 18.896355 24.375372
81 1 1 6.626068 19.252711 24.394831
82 1 1 6.770135 19.552616 24.578410
83 1 1 6.772859 19.489292 24.953087
84 1 1 7.112882 19.402540 25.098890
85 1 1 7.400356 19.606228 24.956518
86 1 1 7.715782 19.611361 24.744669
87 1 1 7.801307 19.842354 24.455311
88 1 1 7.873807 20.214992 24.472183
89 1 1 7.896982 20.586702 24.396723
90 1 1 7.815168 20.930051 24.255945
91 1 1 7.824716 21.141514 23.940362
92 1 1 7.536038 21.173838 23.695372
93 1 1 7.510373 21.546415 23.625172
94 1 1 7.781420 21.734481 23.436586
95 1 1 7.760687 22.102041 23.342408
96 1 1 7.512514 22.306087 23.545326
97 1 1 7.494557 22.657003 23.690016
98 1 1 7.680487 22.988391 23.693510
99 1 1 7.601207 23.334199 23.829643
100 1 1 7.301710 23.492446 24.001861
101 1 1 7.003006 23.727174 23.992997
102 1 1 6.680548 23.684218 24.189403
103 1 1 6.536729 23.922887 24.447770
104 1 1 6.362605 23.815714 24.768074
105 1 1 6.313591 23.729661 25.134943
106 1 1 6.269621 23.507806 25.440306
107 1 1 6.582680 23.427287 25.640084
108 1 1 6.561260 23.582261 25.986385
109 1 1 6.479928 23.544283 26.355631
110 1 1 6.700805 23.513204 26.663280
111 1 1 6.770799 23.391884 27.016525
112 1 1 7.148682 23.387229 27.056317
113 1 1 7.250820 23.118260 27.304557
114 1 1 7.286942 22.740721 27.280899
115 1 1 7.417333 22.519915 27.000465
116 1 1 7.432718 22.320800 26.677175
117 1 1 7.412138 21.997065 26.479256
118 1 1 7.679723 21.932714 26.217230
119 1 1 8.012115 21.985921 26.393538
120 1 1 8.330911 21.855693 26.554192
121 1 1 8.244625 21.810544 26.921502
122 1 1 8.221166 21.762157 27.297678
123 1 1 8.460049 22.008773 27.460515
124 1 1 8.597464 22.300264 27.661886
125 1 1 8.668771 22.219188 28.026224
126 1 1 9.003630 22.184477 28.202476
127 1 1 8.974410 22.086744 28.568528
128 1 1 8.770864 21.888719 28.821026
129 1 1 8.947074 21.598460 28.991613
130 1 1 9.141430 21.340729 29.192113
131 1 1 9.394599 21.243868 29.458427
132 1 1 9.231845 21.187788 29.797198
133 1 1 9.086701 20.956836 30.061763
134 1 1 8.716299 20.873972 30.043444
135 1 1 8.640968 20.523236 30.168780
136 1 1 8.471345 20.202482 30.055885
137 1 1 8.390006 20.017962 29.733804
138 1 1 8.135426 19.805724 29.547944
139 1 1 8.035683 19.625330 29.228712
140 1 1 7.878255 19.872186 28.986475
141 1 1 8.028317 20.220519 28.963113
142 1 1 7.755524 20.482892 28.929280
143 1 1 7.542794 20.420325 28.620684
144 1 1 7.535557 20.053944 28.520126
145 1 1 7.435564 19.749170 28.316375
146 1 1 7.285987 19.436038 28.471214
147 1 1 7.303923 19.079349 28.601026
148 1 1 7.461471 18.737570 28.653622
149 1 1 7.763221 18.546056 28.524512
150 1 1 8.038965 18.803573 28.479230
151 1 1 8.039429 19.178056 28.543747
152 1 1 8.017258 19.546394 28.452997
153 1 1 8.221045 19.866722 28.436859
154 1 1 8.183090 20.169577 28.210500
155 1 1 8.200987 20.191479 27.831554
156 1 1 8.473389 19.958969 27.704526
157 1 1 8.350587 19.606186 27.634785
158 1 1 8.545171 19.283488 27.585764
159 1 1 8.722252 19.119053 27.292501
160 1 1 9.085179 19.011462 27.259210
161 1 1 9.395817 18.804629 27.330795
162 1 1 9.589835 18.660102 27.623828
163 1 1 9.846607 18.859479 27.820595
164 1 1 10.194972 18.731797 27.738503
165 1 1 10.368155 18.394977 27.707516
166 1 1 10.589697 18.218724 27.454032
167 1 1 10.472438 18.042317 27.138547
168 1 1 10.698606 18.128980 26.845737
169 1 1 10.820389 18.482694 26.778989
170 1 1 10.770924 18.640613 26.436914
171 1 1 10.505068 18.540042 26.184713
172 1 1 10.213459 18.313127 26.273447
173 1 1 9.870856 18.150515 26.249343
174 1 1 9.821185 17.857161 26.485724
175 1 1 9.669148 17.512551 26.536013
176 1 1 9.374144 17.295377 26.637047
177 1 1 9.106462 17.463554 26.847909
178 1 1 9.121965 17.452478 27.227431
179 1 1 9.441705 17.274581 27.329994
180 1 1 9.539491 17.175474 27.683569
181 1 1 9.693978 16.839707 27.771852
182 1 1 10.014545 16.807125 27.973286
183 1 1 10.336442 16.622284 28.054626
184 1 1 10.704030 16.528731 28.031679
185 1 1 11.054716 16.614016 28.150614
186 1 1 11.276775 16.862755 27.968354
187 1 1 11.500610 17.033958 28.223280
188 1 1 11.709914 17.231071 28.471752
189 1 1 11.929626 17.155878 28.772539
190 1 1 11.798417 16.992173 29.089374
191 1 1 11.449477 17.110270 29.182614
192 1 1 11.342784 17.268332 29.511298
193 1 1 10.978683 17.170391 29.558607
194 1 1 10.724807 17.451237 29.525862
195 1 1 10.685647 17.735747 29.774700
196 1 1 10.382427 17.898816 29.935530
197 1 1 10.153254 17.837467 30.232374
198 1 1 10.022695 17.482774 30.193040
199 1 1 10.270470 17.194669 30.191200
200 1 1 10.381341 17.004389 30.500879
201 1 1 10.311601 16.653765 30.629716
202 1 1 9.997756 16.514427 30.792462
203 1 1 9.637735 16.447834 30.894196
204 1 1 9.362482 16.186826 30.871595
205 1 1 9.112880 15.900631 30.885436
206 1 1 9.142942 15.533379 30.978290
207 1 1 9.451840 15.407397 30.796327
208 1 1 9.609770 15.067745 30.860317
209 1 1 9.587171 15.281669 0.129712
210 1 1 9.928700 15.442259 0.174089
211 1 1 9.895644 15.765224 31.020457
212 1 1 10.258758 15.818208 30.921764
213 1 1 10.584930 15.998594 30.847782
214 1 1 10.375512 15.915122 0.109830
215 1 1 10.529941 15.972777 0.452215
216 1 1 10.246420 15.921254 0.699927
217 1 1 10.127281 16.171670 0.959731
218 1 1 10.229197 16.493296 1.134572
219 1 1 9.985164 16.556672 1.418881
220 1 1 9.679994 16.781859 1.442593
221 1 1 9.662199 17.147667 1.543923
222 1 1 9.415198 17.436392 1.549236
223 1 1 9.318901 17.513861 1.908577
224 1 1 9.445466 17.305984 2.200414
225 1 1 9.550259 17.405480 2.551866
226 1 1 9.764462 17.719174 2.562539
227 1 1 9.966599 18.040058 2.586496
228 1 1 10.128362 18.377296 2.519388
229 1 1 10.424469 18.463345 2.297316
230 1 1 10.509647 18.137910 2.120577
231 1 1 10.493181 17.817749 2.324602
232 1 1 10.355713 17.472484 2.245263
233 1 1 10.195669 17.279645 2.530918
234 1 1 10.415254 17.053827 2.743493
235 1 1 10.552731 16.793151 2.983385
236 1 1 10.738787 16.462616 3.006402
237 1 1 10.816026 16.392357 3.371776
238 1 1 10.798477 16.039227 3.511027
239 1 1 10.719551 15.865210 3.839492
240 1 1 10.504746 15.953408 4.140290
241 1 1 10.370925 15.655030 4.333841
242 1 1 10.138125 15.723726 4.626220
243 1 1 10.248279 15.833364 4.972984
244 1 1 10.361292 15.796179 5.333880
245 1 1 10.541461 15.561347 5.572192
246 1 1 10.785731 15.745170 5.797893
247 1 1 11.145369 15.810229 5.901948
248 1 1 11.482723 15.666307 5.802557
249 1 1 11.645027 15.490550 5.507317
250 1 1 11.673972 15.127393 5.399246
251 1 1 11.901559 14.891597 5.591610
252 1 1 12.257912 14.764620 5.627526
253 1 1 12.536540 14.951010 5.448571
254 1 1 12.599022 14.854304 5.086433
255 1 1 12.393417 14.877545 4.767707
256 1 1 12.133446 14.600428 4.763061
257 1 1 11.809009 14.497994 4.593805
258 1 1 11.778871 14.120327 4.623110
259 1 1 11.450248 13.948142 4.540896
260 1 1 11.225916 13.913391 4.236154
261 1 1 11.091883 13.723232 3.935697
262 1 1 10.887057 13.511273 3.695864
263 1 1 10.708213 13.176149 3.685506
264 1 1 10.965466 12.897689 3.659418
265 1 1 11.089821 12.867906 3.301579
266 1 1 11.369786 12.646557 3.171102
267 1 1 11.675005 12.507715 2.992316
268 1 1 11.980203 12.370188 3.172151
269 1 1 12.328694 12.496902 3.089100
270 1 1 12.601033 12.393574 3.333138
271 1 1 12.481816 12.433507 3.691736
272 1 1 12.662142 12.379945 4.021908
273 1 1 13.002856 12.212247 4.035757
274 1 1 13.096376 11.959614 3.767744
275 1 1 13.042022 11.591878 3.688905
276 1 1 12.992503 11.228592 3.788760
277 1 1 12.866914 10.930372 3.589530
278 1 1 12.700652 10.753578 3.297125
279 1 1 12.708629 10.379722 3.229541
280 1 1 12.937674 10.141452 3.417066
281 1 1 13.107565 9.961707 3.705560
282 1 1 13.283477 9.683100 3.894857
283 1 1 13.658172 9.745549 3.884666
284 1 1 13.759019 10.102112 3.800446
285 1 1 13.589448 10.286284 3.514567
286 1 1 13.579442 10.172334 3.152193
287 1 1 13.456343 10.380631 2.859176
288 1 1 13.600405 10.728552 2.808213
289 1 1 13.960043 10.840523 2.858440
290 1 1 14.239675 10.601978 2.954886
291 1 1 14.445173 10.612764 3.274346
292 1 1 14.804088 10.539439 3.173334
293 1 1 14.913894 10.517249 2.810222
294 1 1 14.857950 10.154811 2.710681
295 1 1 14.898100 9.828449 2.520219
296 1 1 14.712485 9.836870 2.188743
297 1 1 14.590305 9.519888 2.018465
298 1 1 14.393582 9.295729 1.782981
299 1 1 14.127975 9.060746 1.646467
300 1 1 13.810850 8.967127 1.459206
301 1 1 13.500162 9.183450 1.426385
302 1 1 13.129400 9.137149 1.357159
303 1 1 13.049852 8.774472 1.438011
304 1 1 13.279645 8.545572 1.636002
305 1 1 13.044526 8.343755 1.855978
306 1 1 12.955208 8.420477 2.217276
307 1 1 12.799700 8.211139 2.493672
308 1 1 12.818921 7.847144 2.601086
309 1 1 13.064978 7.576603 2.704352
310 1 1 13.097496 7.289255 2.457828
311 1 1 13.417907 7.093173 2.400485
312 1 1 13.697326 6.939585 2.607211
313 1 1 13.990187 6.726170 2.492815
314 1 1 14.259606 6.513090 2.330303
315 1 1 14.627572 6.481565 2.419790
316 1 1 14.746683 6.120717 2.421026
317 1 1 14.560293 5.828760 2.577293
318 1 1 14.465118 5.828546 2.945181
319 1 1 14.209161 5.892625 3.218640
320 1 1 14.177964 5.649471 3.508990
321 1 1 14.477319 5.415413 3.507169
322 1 1 14.771983 5.390068 3.268568
323 1 1 14.884234 5.037490 3.182032
324 1 1 14.918256 5.024422 2.803784
325 1 1 14.664099 5.158159 2.554949
326 1 1 14.449040 4.989811 2.290736
327 1 1 14.321002 4.632321 2.305117
328 1 1 14.359648 4.274980 2.428463
329 1 1 14.696306 4.232542 2.599520
330 1 1 15.002030 4.302808 2.385054
331 1 1 15.185058 4.610433 2.257511
332 1 1 15.264045 4.981275 2.282754
333 1 1 15.332548 5.329941 2.417434
334 1 1 15.625337 5.407128 2.647036
335 1 1 15.779540 5.687319 2.852254
336 1 1 15.710370 5.626628 3.220943
337 1 1 15.754119 5.301313 3.412402
338 1 1 15.789363 5.016593 3.163218
339 1 1 15.508351 4.761735 3.185125
340 1 1 15.597632 4.407810 3.079455
341 1 1 15.390658 4.095402 3.142405
342 1 1 15.128427 3.989417 3.396180
343 1 1 14.944200 3.734557 3.609504
344 1 1 14.624398 3.530816 3.584691
345 1 1 14.533214 3.291165 3.865143
346 1 1 14.543379 2.931887 3.988497
347 1 1 14.382257 2.625597 3.831570
348 1 1 14.281579 2.274363 3.935965
349 1 1 14.513340 1.977561 3.986912
350 1 1 14.591085 1.714108 4.249491
351 1 1 14.810882 1.459632 4.072484
352 1 1 14.846365 1.093348 3.977736
353 1 1 15.205262 1.015571 3.880045
354 1 1 15.532249 1.053647 4.069860
355 1 1 15.814656 0.847160 4.218216
356 1 1 16.105939 0.664261 4.379778
357 1 1 16.092925 0.587425 4.751702
358 1 1 16.316035 0.629537 5.056413
359 1 1 16.120870 0.491105 5.351620
360 1 1 15.839494 0.296794 5.517364
361 1 1 15.973812 30.997352 5.425137
362 1 1 16.113327 30.650210 5.491682
363 1 1 16.397886 30.398510 5.500247
364 1 1 16.398593 30.020613 5.540158
365 1 1 16.386074 29.748379 5.275333
366 1 1 16.402391 29.516863 4.974444
367 1 1 16.150755 29.232335 4.963358
368 1 1 15.778924 29.168812 4.917458
369 1 1 15.477454 29.038934 4.726023
370 1 1 15.568459 28.749895 4.496732
371 1 1 15.618457 28.373440 4.483252
372 1 1 15.946250 28.256876 4.330398
373 1 1 16.243822 28.423499 4.162805
374 1 1 16.561236 28.386008 3.957273
375 1 1 16.545774 28.596935 3.641566
376 1 1 16.318315 28.543730 3.341846
377 1 1 16.161140 28.617155 3.003756
378 1 1 15.984949 28.343426 2.807723
379 1 1 15.978115 28.192951 2.458852
380 1 1 15.674756 27.966524 2.425622
381 1 1 15.509932 28.037433 2.090652
382 1 1 15.509762 27.957899 1.719069
383 1 1 15.547528 27.864070 1.352776
384 1 1 15.604728 27.512523 1.220328
385 1 1 15.481283 27.410721 0.875658
386 1 1 15.452880 27.092505 0.669910
387 1 1 15.397229 26.960022 0.318127
388 1 1 15.184534 26.859136 0.019827
389 1 1 14.974316 26.568272 30.938756
390 1 1 14.676097 26.525573 30.707149
391 1 1 14.393752 26.328521 30.867934
392 1 1 14.535054 26.514467 0.123843
393 1 1 14.870776 26.336639 0.132080
394 1 1 15.071394 26.071599 0.316216
395 1 1 15.436775 26.175130 0.302881
396 1 1 15.782241 26.234348 0.449667
397 1 1 16.090480 26.439295 0.363727
398 1 1 16.427485 26.302921 0.474316
399 1 1 16.761540 26.284496 0.654504
400 1 1 17.135658 26.288074 0.587998
401 1 1 17.370270 26.532408 0.415783
402 1 1 17.716959 26.456281 0.551471
403 1 1 17.725270 26.443865 0.931177
404 1 1 18.076862 26.459523 1.074486
405 1 1 18.234856 26.233548 1.335969
406 1 1 18.309252 26.268632 1.706960
407 1 1 18.596203 26.199665 1.946340
408 1 1 18.915460 26.003871 1.882001
409 1 1 18.912900 25.756092 1.593906
410 1 1 19.069089 25.494255 1.367088
411 1 1 18.803174 25.360428 1.130912
412 1 1 18.452189 25.502918 1.161020
413 1 1 18.085672 25.578241 1.227288
414 1 1 17.776407 25.633534 1.441058
415 1 1 17.646328 25.807580 1.752808
416 1 1 17.271669 25.783414 1.811517
417 1 1 16.937932 25.948393 1.735347
418 1 1 16.738667 26.260447 1.820878
419 1 1 16.533735 26.490830 1.598782
420 1 1 16.725389 26.805012 1.504131
421 1 1 17.005788 27.058853 1.467515
422 1 1 17.153288 27.321632 1.699013
423 1 1 17.128225 27.697712 1.650683
424 1 1 17.325203 27.875761 1.378842
425 1 1 17.374712 27.890805 1.002381
426 1 1 17.268612 27.789474 0.651846
427 1 1 17.262729 28.005145 0.339034
428 1 1 17.493104 27.924740 0.047721
429 1 1 17.560694 27.551604 0.023207
430 1 1 17.605133 27.199848 30.930339
431 1 1 17.619751 27.145071 30.554592
432 1 1 17.344898 27.116706 30.293726
433 1 1 17.262741 26.895035 29.996216
434 1 1 17.041860 26.848349 29.690549
435 1 1 17.169167 26.992210 29.362682
436 1 1 17.503062 27.139672 29.256997
437 1 1 17.783423 26.884452 29.231305
438 1 1 18.156374 26.812005 29.238972
439 1 1 18.245452 26.687729 28.891091
440 1 1 18.397541 26.404750 28.688133
441 1 1 18.772595 26.444558 28.734500
442 1 1 19.119948 26.313567 28.815658
443 1 1 19.408291 26.067568 28.788401
444 1 1 19.401265 25.908479 28.443378
445 1 1 19.679649 25.852704 28.190808
446 1 1 20.038972 25.934840 28.098394
447 1 1 20.287944 25.884193 28.380968
448 1 1 20.618065 25.751998 28.514924
449 1 1 20.770159 25.536653 28.241256
450 1 1 20.755257 25.504785 27.862888
451 1 1 9.608728 21.284619 21.290591
452 1 1 9.930208 21.222483 21.483437
453 1 1 10.143141 20.926101 21.589347
454 1 1 10.128636 20.573689 21.730752
455 1 1 10.394573 20.375503 21.916224
456 1 1 10.568955 20.054986 21.810110
457 1 1 10.385496 19.723884 21.843495
458 1 1 10.197621 19.644793 21.522796
459 1 1 10.317400 19.484102 21.199947
460 1 1 10.554484 19.722801 21.023273
461 1 1 10.813408 19.995575 20.968936
462 1 1 11.004273 20.318100 21.031769
463 1 1 10.924534 20.635060 21.225620
464 1 1 10.705244 20.927087 21.330656
465 1 1 10.475517 21.112084 21.091071
466 1 1 10.607014 21.029842 20.744163
467 1 1 10.735474 20.709120 20.585937
468 1 1 10.742109 20.360872 20.434018
469 1 1 10.466492 20.134033 20.303715
470 1 1 10.178259 19.886648 20.314765
471 1 1 10.206737 19.520646 20.412906
472 1 1 10.078788 19.183723 20.292441
473 1 1 9.938096 18.970173 20.011367
474 1 1 9.999749 19.010949 19.638626
475 1 1 9.844187 18.709802 19.466837
476 1 1 9.829949 18.692629 19.087492
477 1 1 9.940972 18.495790 18.781995
478 1 1 9.852570 18.241637 18.513683
479 1 1 9.847590 17.874672 18.612230
480 1 1 10.026988 17.834015 18.944740
481 1 1 10.262202 17.805219 19.241801
482 1 1 10.241060 18.080846 19.502536
483 1 1 10.380967 18.425605 19.425291
484 1 1 10.718974 18.542792 19.297156
485 1 1 10.893653 18.831478 19.471934
486 1 1 11.015503 19.188233 19.424199
487 1 1 11.334672 19.286322 19.242789
488 1 1 11.567997 19.547765 19.389781
489 1 1 11.495922 19.812086 19.653105
490 1 1 11.198522 19.680545 19.849702
491 1 1 10.867019 19.508536 19.919832
492 1 1 10.755821 19.314861 20.227282
493 1 1 10.708502 18.947761 20.313293
494 1 1 10.528744 18.622639 20.233399
495 1 1 10.429953 18.306615 20.046934
496 1 1 10.549166 17.959706 20.146144
497 1 1 10.274142 17.706756 20.215266
498 1 1 9.999446 17.444192 20.213748
499 1 1 9.656437 17.286893 20.258492
500 1 1 9.401809 17.403634 20.001712
501 1 1 9.048341 17.471941 20.123346
502 1 1 8.736029 17.263633 20.064448
503 1 1 8.846973 16.902891 20.108678
504 1 1 9.049049 16.642729 20.298101
505 1 1 9.257460 16.414591 20.519275
506 1 1 9.493330 16.387854 20.816008
507 1 1 9.331212 16.579245 21.101467
508 1 1 9.477166 16.849676 21.324994
509 1 1 9.782457 17.061779 21.403798
510 1 1 10.134966 16.928680 21.354578
511 1 1 10.496644 17.042147 21.381304
512 1 1 10.581412 17.201796 21.715559
513 1 1 10.437754 17.228810 22.066318
514 1 1 10.385135 17.469810 22.355369
515 1 1 10.648215 17.744015 22.356228
516 1 1 10.860165 18.011409 22.188963
517 1 1 11.178518 18.168280 22.053159
518 1 1 11.477501 18.200516 21.820844
519 1 1 11.814296 18.277704 21.662695
520 1 1 11.872950 18.536389 21.390589
521 1 1 12.026735 18.863454 21.507973
522 1 1 12.133357 19.163701 21.300889
523 1 1 12.083745 19.513169 21.441640
524 1 1 12.088940 19.886575 21.511932
525 1 1 11.880557 20.068059 21.251087
526 1 1 11.844776 20.326890 20.975177
527 1 1 11.670131 20.364203 20.639757
528 1 1 11.482488 20.659565 20.491597
529 1 1 11.516499 21.034396 20.543991
530 1 1 11.640263 21.242851 20.836615
531 1 1 11.493280 21.183892 21.182042
532 1 1 11.573643 20.978137 21.491246
533 1 1 11.676494 20.849072 21.833538
534 1 1 11.788418 20.544394 22.031135
535 1 1 12.110331 20.350066 22.085983
536 1 1 12.145312 20.164753 22.415886
537 1 1 12.189613 19.986642 22.748623
538 1 1 12.312048 19.627143 22.761666
539 1 1 12.290498 19.423178 23.081563
540 1 1 12.257561 19.654669 23.381108
541 1 1 12.472946 19.956038 23.296336
542 1 1 12.561141 20.290233 23.454246
543 1 1 12.613536 20.547337 23.179378
544 1 1 12.483088 20.886191 23.291454
545 1 1 12.189421 21.043620 23.108764
546 1 1 11.973838 21.263439 23.331483
547 1 1 11.713141 21.481632 23.501274
548 1 1 11.884087 21.776620 23.669083
549 1 1 11.791519 22.050602 23.915588
550 1 1 11.793116 22.373567 23.715360
551 1 1 11.819097 22.624085 23.430815
552 1 1 11.638409 22.820003 23.159950
553 1 1 11.609115 22.932832 22.798271
554 1 1 11.840125 23.097371 22.545365
555 1 1 11.703840 22.989156 22.207554
556 1 1 11.929882 22.971344 21.902615
557 1 1 11.879202 22.735940 21.608648
558 1 1 11.649043 22.618409 21.330057
559 1 1 11.408948 22.331207 21.264715
560 1 1 11.170953 22.200598 20.998821
561 1 1 11.205424 22.283980 20.629688
562 1 1 11.442149 22.556307 20.510528
563 1 1 11.820177 22.519437 20.522166
564 1 1 12.181412 22.569887 20.415564
565 1 1 12.407008 22.566834 20.109791
566 1 1 12.746326 22.544568 19.940181
567 1 1 12.921686 22.876587 19.881770
568 1 1 13.039213 23.016738 19.548685
569 1 1 13.048566 23.351579 19.369259
570 1 1 13.182731 23.575561 19.093158
571 1 1 13.232117 23.731894 18.750345
572 1 1 13.233464 24.047205 18.538266
573 1 1 12.927858 24.067359 18.313323
574 1 1 12.600695 24.259739 18.332134
575 1 1 12.354046 24.361346 18.061505
576 1 1 12.183323 24.693017 17.989060
577 1 1 11.947045 24.680650 17.691705
578 1 1 11.603079 24.569261 17.574745
579 1 1 11.229333 24.503354 17.555496
580 1 1 10.878394 24.603804 17.661098
581 1 1 10.735807 24.908013 17.483543
582 1 1 10.656624 25.213504 17.271869
583 1 1 10.573324 25.552051 17.120717
584 1 1 10.561913 25.927688 17.176988
585 1 1 10.489088 26.273649 17.037677
586 1 1 10.503935 26.556549 17.290949
587 1 1 10.477359 26.477349 17.661653
588 1 1 10.202875 26.217747 17.702461
589 1 1 9.827327 26.168468 17.733043
590 1 1 9.602685 25.865232 17.688500
591 1 1 9.691214 25.534139 17.852635
592 1 1 9.831669 25.185790 17.910301
593 1 1 9.607008 24.972271 18.130158
594 1 1 9.666686 24.597862 18.104538
595 1 1 9.902026 24.303238 18.151568
596 1 1 10.216165 24.361807 18.357204
597 1 1 10.373355 24.362133 18.703168
598 1 1 10.489225 24.038113 18.864368
599 1 1 10.776170 24.061702 19.112372
600 1 1 10.872126 24.379050 19.298067
601 1 1 11.039433 24.380154 19.639252
602 1 1 11.402322 24.267877 19.628992
603 1 1 11.480922 23.932435 19.468678
604 1 1 11.526319 23.685081 19.183801
605 1 1 11.659216 23.342875 19.281952
606 1 1 11.771395 23.036860 19.086579
607 1 1 11.911355 22.703819 19.204457
608 1 1 11.705308 22.388656 19.153299
609 1 1 11.916073 22.072876 19.137156
610 1 1 12.271199 22.032654 19.008050
611 1 1 12.537984 21.790470 18.887332
612 1 1 12.613975 21.830353 18.517150
613 1 1 12.475741 22.146138 18.357241
614 1 1 12.132835 22.309538 18.346456
615 1 1 11.774827 22.300941 18.219350
616 1 1 11.617560 22.000261 18.048297
617 1 1 11.516727 21.852343 17.713106
618 1 1 11.420628 22.120596 17.461699
619 1 1 11.191894 22.336999 17.248977
620 1 1 10.822739 22.338739 17.339097
621 1 1 10.445373 22.300280 17.316380
622 1 1 10.252937 22.245912 16.993251
623 1 1 10.060254 22.553818 16.881594
624 1 1 10.199258 22.854164 17.068331
625 1 1 10.405412 23.135222 16.916981
626 1 1 10.609163 23.381829 17.122091
627 1 1 10.974494 23.354041 17.021290
628 1 1 11.038137 23.097890 16.747911
629 1 1 10.840019 23.132177 16.425462
630 1 1 10.679913 23.465020 16.336123
631 1 1 10.668089 23.831326 16.436523
632 1 1 10.301175 23.927096 16.411980
633 1 1 10.094095 24.235303 16.492763
634 1 1 9.798056 24.287837 16.725144
635 1 1 9.418768 24.268018 16.712983
636 1 1 9.064216 24.160309 16.797196
637 1 1 8.787917 24.292410 17.022158
638 1 1 8.680339 24.410316 17.367014
639 1 1 8.314046 24.348567 17.447116
640 1 1 8.093300 24.641470 17.546507
641 1 1 7.981407 24.922796 17.776151
642 1 1 7.744191 25.153092 17.963480
643 1 1 7.573209 25.492442 17.960884
644 1 1 7.542368 25.860682 17.872296
645 1 1 7.789140 26.059613 17.662701
646 1 1 8.125707 25.910686 17.568130
647 1 1 8.382483 25.734922 17.350017
648 1 1 8.676114 25.526606 17.228422
649 1 1 8.838258 25.633708 16.901867
650 1 1 8.694928 25.669812 16.551791
651 1 1 8.643405 25.987646 16.349983
652 1 1 8.888937 26.277238 16.365815
653 1 1 9.221963 26.458776 16.389002
654 1 1 9.390391 26.684557 16.644061
655 1 1 9.392355 27.063737 16.619193
656 1 1 9.579087 27.270168 16.877877
657 1 1 9.510709 27.540404 17.136135
658 1 1 9.418079 27.684508 17.475330
659 1 1 9.498399 28.041928 17.576322
660 1 1 9.350605 28.142831 17.911547
661 1 1 9.297280 27.944352 18.231176
662 1 1 9.145859 28.036785 18.567223
663 1 1 8.834676 27.837685 18.656242
664 1 1 8.689415 27.491079 18.712491
665 1 1 8.950790 27.236141 18.607181
666 1 1 9.276151 27.430125 18.577007
667 1 1 9.652730 27.413626 18.625131
668 1 1 9.950404 27.436942 18.860176
669 1 1 9.942207 27.142049 19.099698
670 1 1 10.154570 26.855205 19.230170
671 1 1 9.921878 26.556462 19.261896
672 1 1 9.662586 26.536620 19.538977
673 1 1 9.335111 26.543896 19.731609
674 1 1 9.118400 26.855361 19.752252
675 1 1 8.743513 26.808793 19.711134
676 1 1 8.436238 27.031570 19.692374
677 1 1 8.207489 27.079323 19.392718
678 1 1 8.140411 26.761699 19.195195
679 1 1 7.980987 26.514086 19.435345
680 1 1 8.181388 26.202056 19.518270
681 1 1 8.322410 25.892798 19.688188
682 1 1 8.334390 25.903190 20.067857
683 1 1 8.141893 25.972031 20.388178
684 1 1 8.232588 26.276222 20.597086
685 1 1 8.607300 26.326604 20.635202
686 1 1 8.835510 26.541627 20.849877
687 1 1 8.906875 26.855218 20.647473
688 1 1 8.924710 27.179197 20.845261
689 1 1 8.765972 27.522150 20.885076
690 1 1 8.422234 27.652269 20.788570
691 1 1 8.053149 27.742036 20.777709
692 1 1 7.774380 27.901971 20.574956
693 1 1 7.749889 28.084119 20.242356
694 1 1 7.379628 28.141406 20.178917
695 1 1 7.195653 27.811347 20.219094
696 1 1 7.104660 27.461555 20.101766
697 1 1 7.120294 27.215170 20.390643
698 1 1 6.894587 26.926565 20.491457
699 1 1 6.522624 26.910965 20.415302
700 1 1 6.335225 26.901280 20.745738
701 1 1 6.351296 27.063538 21.088978
702 1 1 6.594760 27.249948 21.313425
703 1 1 6.590066 27.568094 21.521178
704 1 1 6.523443 27.769700 21.836323
705 1 1 6.396230 28.112677 21.939200
706 1 1 6.027388 28.158680 22.018188
707 1 1 5.770330 28.424213 21.929795
708 1 1 5.817279 28.645218 21.624258
709 1 1 6.183391 28.699477 21.538129
710 1 1 6.427005 28.461380 21.369719
711 1 1 6.442337 28.101393 21.248994
712 1 1 6.172271 27.901128 21.071911
713 1 1 5.911451 27.689568 21.249716
714 1 1 5.655876 27.806770 21.505343
715 1 1 5.356316 27.575333 21.472161
716 1 1 4.980701 27.591162 21.527504
717 1 1 4.792826 27.357081 21.294461
718 1 1 4.734576 27.450859 20.930850
719 1 1 5.004167 27.684575 20.800091
720 1 1 5.233788 27.839595 20.540009
721 1 1 5.425986 27.750971 20.224405
722 1 1 5.280205 27.569497 19.924046
723 1 1 5.269532 27.818715 19.637382
724 1 1 5.133823 28.047168 19.365735
725 1 1 5.125455 28.412713 19.469210
726 1 1 4.945548 28.612640 19.737655
727 1 1 4.913835 28.502662 20.100007
728 1 1 4.599674 28.539804 20.310538
729 1 1 4.474043 28.848286 20.493447
730 1 1 4.142275 28.978494 20.625265
731 1 1 3.836919 29.083883 20.825393
732 1 1 3.590109 28.835958 20.973778
733 1 1 3.341570 28.790929 21.257680
734 1 1 3.139373 28.905631 21.558279
735 1 1 2.973731 28.688238 21.822293
736 1 1 2.601059 28.668596 21.893915
737 1 1 2.508537 28.517959 22.230290
738 1 1 2.292464 28.540829 22.542041
739 1 1 2.062794 28.421063 22.820084
740 1 1 1.822548 28.439640 23.113916
741 1 1 1.622197 28.760987 23.082358
742 1 1 1.636885 29.131267 22.998232
743 1 1 1.378165 29.355310 22.833101
744 1 1 1.026570 29.474559 22.914101
745 1 1 0.733618 29.714786 22.943602
746 1 1 0.474834 29.912524 23.139383
747 1 1 0.193666 30.047737 23.356322
748 1 1 30.874255 30.158506 23.369284
749 1 1 30.538684 30.209481 23.198422
750 1 1 30.165077 30.165397 23.252035
751 1 1 29.995919 30.269711 22.928146
752 1 1 30.116492 30.421819 22.601458
753 1 1 30.185612 30.728145 22.387479
754 1 1 30.101000 30.873805 22.046856
755 1 1 29.995915 0.131756 22.252454
756 1 1 29.678616 0.111969 22.460612
757 1 1 29.782665 0.235371 22.804626
758 1 1 29.986201 0.339539 23.108143
759 1 1 29.875834 0.462343 23.450397
760 1 1 29.570714 0.595964 23.633284
761 1 1 29.274554 0.432708 23.806594
762 1 1 29.022340 0.579113 24.050220
763 1 1 29.023029 0.747711 24.390770
764 1 1 29.027753 0.732857 24.770450
765 1 1 28.864089 0.633264 25.098619
766 1 1 28.694499 0.752599 25.417051
767 1 1 28.449296 0.612048 25.671061
768 1 1 28.397479 0.865342 25.949552
769 1 1 28.391674 0.761254 26.314972
770 1 1 28.204110 0.713076 26.641926
771 1 1 28.315024 0.419450 26.856127
772 1 1 28.411578 0.572969 27.190057
773 1 1 28.292691 0.792492 27.476545
774 1 1 27.936857 0.872658 27.583107
775 1 1 27.633649 0.691546 27.723334
776 1 1 27.391193 0.953697 27.853303
777 1 1 27.051674 1.044083 27.998067
778 1 1 26.808271 1.334723 28.024210
779 1 1 26.463668 1.190732 28.094323
780 1 1 26.218211 1.445047 28.233873
781 1 1 25.848818 1.364027 28.196666
782 1 1 25.493234 1.324560 28.324738
783 1 1 25.276617 1.234427 28.623658
784 1 1 25.297816 0.890729 28.784350
785 1 1 25.163380 0.680908 29.071234
786 1 1 24.860042 0.519952 29.233959
787 1 1 24.728273 0.165743 29.273615
788 1 1 24.947056 30.898923 29.277551
789 1 1 24.838598 30.776785 29.620653
790 1 1 24.547840 30.894184 29.835309
791 1 1 24.233371 30.800744 29.643532
792 1 1 23.974950 30.951031 29.408942
793 1 1 23.611075 30.940728 29.299905
794 1 1 23.611362 0.012667 29.661833
795 1 1 23.621044 30.986812 30.035259
796 1 1 23.659181 30.744677 30.325631
797 1 1 23.434855 30.741452 30.632335
798 1 1 23.662650 30.674971 30.929134
799 1 1 23.539149 30.948721 0.118105
800 1 1 23.201577 30.926851 0.291216
801 1 1 23.061148 0.229231 0.221925
802 1 1 23.421129 0.345638 0.257457
803 1 1 23.741564 0.146169 0.301430
804 1 1 24.098405 0.142404 0.170853