LAMMPS data file for polymer system

22500 atoms
22450 bonds

1 atom types
1 bond types

0.0 31.04385442133693 xlo xhi
0.0 31.04385442133693 ylo yhi
0.0 31.04385442133693 zlo zhi

Masses

1 5.65487

Atoms

1 1 1 2.648972 29.336181 19.835826
2 1 1 2.574979 29.010861 20.017739
3 1 1 2.493719 28.714753 20.241606
4 1 1 2.459747 28.678857 20.618378
5 1 1 2.752963 28.751939 20.848776
6 1 1 3.005643 28.516683 21.007545
7 1 1 3.217965 28.222200 21.119789
8 1 1 3.554722 28.080756 21.014963
9 1 1 3.736241 27.747185 21.001494
10 1 1 4.091496 27.614216 20.978842
11 1 1 4.314302 27.629088 20.671374
12 1 1 4.666047 27.527786 20.773418
13 1 1 4.767046 27.195344 20.927306
14 1 1 4.850604 27.172718 21.297314
15 1 1 4.921349 27.501986 21.473318
16 1 1 4.913567 27.613012 21.836653
17 1 1 5.111205 27.584160 22.159928
18 1 1 5.471855 27.691586 22.212762
19 1 1 5.741911 27.707096 21.945875
20 1 1 5.889073 27.357075 21.930755
21 1 1 6.028909 27.125007 22.197195
22 1 1 6.226346 26.863110 22.389103
23 1 1 6.196908 26.507650 22.520183
24 1 1 6.170492 26.246113 22.245773
25 1 1 6.363552 26.075661 21.966357
26 1 1 6.350701 25.716890 21.841784
27 1 1 6.563594 25.456590 21.664808
28 1 1 6.890439 25.262904 21.672408
29 1 1 7.177415 25.299049 21.918859
30 1 1 7.390575 25.023247 22.070172
31 1 1 7.534884 24.818699 21.784278
32 1 1 7.693524 24.860538 21.441521
33 1 1 7.520694 24.729483 21.129504
34 1 1 7.644448 24.809469 20.779237
35 1 1 7.934437 24.763380 20.538027
36 1 1 8.137499 24.770077 20.216902
37 1 1 8.134629 24.569703 19.894037
38 1 1 8.199709 24.262720 19.679733
39 1 1 8.182373 24.126918 19.325251
40 1 1 7.999745 23.960836 19.036350
41 1 1 7.750286 23.674296 19.028297
42 1 1 7.648035 23.460881 19.325617
43 1 1 7.916868 23.196151 19.370848
44 1 1 8.246799 23.074975 19.226409
45 1 1 8.375031 22.744242 19.090130
46 1 1 8.201678 22.633984 18.770455
47 1 1 8.229338 22.258460 18.719309
48 1 1 8.038258 21.988126 18.905878
49 1 1 7.887289 21.641277 18.869758
50 1 1 7.835074 21.307552 18.695687
51 1 1 7.914079 21.084099 18.398657
52 1 1 7.910298 21.178135 18.030495
53 1 1 8.211033 21.275930 17.819795
54 1 1 8.408995 20.959575 17.748166
55 1 1 8.531477 20.615665 17.642695
56 1 1 8.606414 20.285181 17.814640
57 1 1 8.515298 20.047581 18.096853
58 1 1 8.432363 20.219417 18.425478
59 1 1 8.590256 20.558221 18.493901
60 1 1 8.600795 20.926632 18.586432
61 1 1 8.824858 21.187918 18.425417
62 1 1 8.777748 21.541956 18.555177
63 1 1 8.637005 21.764465 18.281167
64 1 1 8.638710 22.107718 18.118152
65 1 1 8.576803 22.326403 17.813612
66 1 1 8.540761 22.682034 17.684663
67 1 1 8.525815 22.971648 17.930224
68 1 1 8.339518 23.150647 18.208887
69 1 1 8.473616 23.369850 18.488830
70 1 1 8.394319 23.537763 18.820367
71 1 1 8.697121 23.738364 18.932038
72 1 1 8.715750 23.721728 19.311217
73 1 1 8.801350 24.053825 19.474875
74 1 1 8.843016 24.404602 19.334808
75 1 1 8.697209 24.720385 19.181767
76 1 1 8.612525 24.659287 18.816396
77 1 1 8.911150 24.733618 18.593465
78 1 1 9.043525 24.577194 18.273452
79 1 1 9.231801 24.251561 18.219460
80 1 1 9.372903 23.951315 18.404778
81 1 1 9.713690 23.783194 18.405223
82 1 1 9.750087 23.627363 18.749885
83 1 1 9.652092 23.899866 18.995932
84 1 1 9.830323 24.219955 18.895052
85 1 1 10.162757 24.201467 18.711897
86 1 1 10.540617 24.168286 18.734713
87 1 1 10.678594 23.823579 18.815579
88 1 1 10.563477 23.728827 19.165108
89 1 1 10.297033 23.648545 19.423878
90 1 1 10.121750 23.915178 19.630234
91 1 1 9.871827 24.169003 19.762565
92 1 1 9.763438 24.039848 20.103110
93 1 1 9.515748 23.756831 20.157430
94 1 1 9.434185 23.605794 19.818409
95 1 1 9.564225 23.433987 19.505404
96 1 1 9.761953 23.150060 19.348277
97 1 1 9.664288 23.043220 18.996927
98 1 1 9.720988 22.684008 18.886690
99 1 1 9.888501 22.386358 19.053254
100 1 1 9.838855 22.009858 19.039728
101 1 1 9.522388 21.800988 19.014785
102 1 1 9.440381 21.567951 19.303521
103 1 1 9.229008 21.252226 19.297235
104 1 1 8.990907 21.049578 19.513201
105 1 1 8.649281 21.076147 19.677474
106 1 1 8.332303 20.997970 19.871931
107 1 1 8.144602 21.325659 19.914217
108 1 1 8.035422 21.612129 19.689685
109 1 1 7.761669 21.832634 19.545336
110 1 1 7.432674 21.862952 19.357603
111 1 1 7.311827 21.953361 19.008860
112 1 1 7.407207 22.294428 18.871107
113 1 1 7.170304 22.537329 18.700005
114 1 1 6.991515 22.863805 18.776477
115 1 1 6.910059 23.121633 19.043478
116 1 1 6.886733 23.049939 19.415923
117 1 1 6.627240 22.893355 19.645150
118 1 1 6.736918 22.970250 20.000759
119 1 1 7.025405 22.841671 20.212047
120 1 1 6.972775 22.967664 20.566668
121 1 1 7.043271 23.210760 20.850102
122 1 1 7.273601 23.032096 21.093878
123 1 1 7.533621 22.955265 21.360123
124 1 1 7.523563 22.635306 21.564880
125 1 1 7.444145 22.380800 21.835656
126 1 1 7.307304 22.035681 21.754617
127 1 1 7.219868 21.926068 21.401432
128 1 1 7.364600 21.659466 21.172573
129 1 1 7.503342 21.341468 21.017565
130 1 1 7.538918 20.963249 21.026769
131 1 1 7.755193 20.657973 21.093338
132 1 1 7.541765 20.343701 21.084299
133 1 1 7.305777 20.147564 21.308442
134 1 1 7.016426 20.331467 21.472319
135 1 1 6.908421 20.628091 21.683859
136 1 1 6.943707 20.576880 22.058735
137 1 1 7.194979 20.421285 22.297593
138 1 1 7.549188 20.285047 22.316957
139 1 1 7.906748 20.179145 22.390000
140 1 1 8.171353 20.046231 22.628156
141 1 1 8.219912 19.670781 22.661011
142 1 1 8.138243 19.327901 22.803010
143 1 1 7.845926 19.151080 22.969398
144 1 1 7.528250 18.952788 22.904880
145 1 1 7.233941 18.802980 22.716892
146 1 1 6.912748 18.874949 22.527010
147 1 1 6.899841 19.121447 22.238094
148 1 1 6.557926 19.163038 22.077582
149 1 1 6.391707 18.821384 22.084182
150 1 1 6.135637 18.620709 22.280543
151 1 1 5.889304 18.834061 22.475994
152 1 1 5.746506 19.012271 22.779720
153 1 1 5.432192 18.842679 22.909511
154 1 1 5.066051 18.844460 23.011184
155 1 1 4.834238 18.548591 22.955285
156 1 1 4.680440 18.266603 22.752237
157 1 1 4.675032 18.115240 22.403726
158 1 1 4.738300 18.196821 22.038018
159 1 1 4.706989 18.553792 21.911562
160 1 1 4.806605 18.718677 21.584011
161 1 1 5.176904 18.799187 21.555787
162 1 1 5.328291 18.656841 21.237637
163 1 1 5.274959 18.521657 20.886523
164 1 1 5.061201 18.391456 20.600594
165 1 1 4.837763 18.322481 20.301065
166 1 1 4.989240 18.115177 20.020922
167 1 1 4.933018 17.859880 19.745128
168 1 1 5.086550 17.952970 19.410222
169 1 1 5.299862 18.225040 19.252500
170 1 1 5.591154 18.459291 19.184123
171 1 1 5.534325 18.830157 19.123882
172 1 1 5.291739 18.951856 19.389855
173 1 1 5.153104 19.303381 19.349728
174 1 1 5.011675 19.572272 19.121483
175 1 1 5.123290 19.541978 18.759510
176 1 1 4.911408 19.796749 18.573505
177 1 1 4.819059 20.109853 18.768024
178 1 1 4.522968 20.334239 18.688144
179 1 1 4.262781 20.355007 18.411971
180 1 1 4.129821 20.268304 18.066711
181 1 1 3.798463 20.444265 18.006380
182 1 1 3.568054 20.705008 17.853656
183 1 1 3.242535 20.714394 18.049485
184 1 1 2.876990 20.790524 17.978906
185 1 1 2.583888 20.620561 18.150962
186 1 1 2.398474 20.356626 17.950063
187 1 1 2.314541 20.072921 17.711596
188 1 1 2.338130 20.033716 17.334361
189 1 1 2.516575 19.707046 17.257914
190 1 1 2.712364 19.588196 17.561132
191 1 1 3.055553 19.651643 17.711450
192 1 1 3.423450 19.720460 17.777145
193 1 1 3.798682 19.780370 17.773686
194 1 1 4.019647 19.497576 17.898594
195 1 1 4.393171 19.438927 17.936537
196 1 1 4.608303 19.355353 17.634653
197 1 1 4.509332 19.051408 17.429173
198 1 1 4.615093 19.043336 17.064276
199 1 1 4.845066 19.235821 16.830905
200 1 1 5.108846 19.000057 16.692213
201 1 1 5.379996 19.228987 16.556313
202 1 1 5.638820 19.472527 16.690845
203 1 1 5.724120 19.842826 16.692354
204 1 1 5.950030 19.946789 16.405027
205 1 1 6.010178 19.906751 16.031960
206 1 1 6.368615 19.992762 15.939627
207 1 1 6.548292 20.090001 16.260034
208 1 1 6.666092 20.450639 16.238501
209 1 1 6.992612 20.637179 16.183847
210 1 1 7.144694 20.982399 16.138082
211 1 1 6.935644 21.297184 16.097977
212 1 1 6.934851 21.558190 15.821798
213 1 1 7.114085 21.892674 15.801911
214 1 1 7.219439 22.054445 15.474603
215 1 1 7.361264 21.915425 15.150629
216 1 1 7.657398 21.903298 14.912811
217 1 1 7.738985 22.229837 14.736414
218 1 1 7.512058 22.499884 14.877761
219 1 1 7.249471 22.752405 14.769683
220 1 1 7.367791 23.037982 14.548673
221 1 1 7.165474 23.096280 14.232336
222 1 1 7.056190 23.460093 14.222490
223 1 1 6.907049 23.617637 13.910501
224 1 1 6.553294 23.516441 13.815543
225 1 1 6.189214 23.554851 13.917378
226 1 1 5.991115 23.255026 13.793839
227 1 1 6.061921 22.960955 14.023858
228 1 1 5.754497 22.742015 14.068081
229 1 1 5.472071 22.803789 13.821464
230 1 1 5.302071 23.044755 13.581807
231 1 1 5.275399 23.419552 13.525100
232 1 1 5.433271 23.711324 13.339774
233 1 1 5.503751 23.850995 12.993473
234 1 1 5.228345 23.712429 12.771321
235 1 1 5.187952 23.858176 12.422715
236 1 1 5.253687 24.230473 12.384329
237 1 1 5.143975 24.561893 12.534408
238 1 1 4.873399 24.518933 12.797738
239 1 1 4.610435 24.529414 13.071856
240 1 1 4.527183 24.826284 13.293975
241 1 1 4.746156 25.123170 13.385132
242 1 1 4.565380 25.346520 13.633799
243 1 1 4.429213 25.674641 13.768687
244 1 1 4.078477 25.807323 13.830167
245 1 1 3.782412 25.748214 13.599405
246 1 1 3.722979 25.405638 13.446076
247 1 1 3.726154 25.218891 13.115145
248 1 1 4.060836 25.129144 12.959153
249 1 1 4.396254 25.176396 12.786926
250 1 1 4.650063 25.101936 12.514094
251 1 1 4.560799 24.810991 12.286537
252 1 1 4.643722 24.494630 12.093044
253 1 1 4.948258 24.396680 11.887949
254 1 1 5.105629 24.585231 11.597978
255 1 1 5.470485 24.566868 11.493369
256 1 1 5.605487 24.590545 11.138949
257 1 1 5.666768 24.631269 10.766140
258 1 1 5.623585 24.471733 10.423965
259 1 1 5.445199 24.463009 10.088552
260 1 1 5.320836 24.669791 9.794996
261 1 1 5.341110 25.029680 9.674709
262 1 1 5.303903 25.380720 9.534043
263 1 1 4.983019 25.536752 9.403323
264 1 1 4.737697 25.652536 9.669426
265 1 1 4.758954 26.016530 9.776460
266 1 1 4.486428 26.107582 10.025134
267 1 1 4.192559 25.867817 10.001601
268 1 1 3.813883 25.836904 9.994564
269 1 1 3.445708 25.750775 9.956766
270 1 1 3.242379 25.564560 9.695267
271 1 1 3.123455 25.381048 9.384494
272 1 1 2.790688 25.543158 9.298548
273 1 1 2.662296 25.780398 9.566191
274 1 1 2.393225 25.954031 9.770770
275 1 1 2.128935 26.078014 10.014037
276 1 1 2.053781 26.437379 10.112060
277 1 1 2.029551 26.612892 10.448227
278 1 1 1.684907 26.767716 10.488847
279 1 1 1.446394 26.743271 10.783659
280 1 1 1.253786 26.904674 11.068705
281 1 1 1.089822 26.876786 11.410375
282 1 1 0.893894 27.020893 11.702343
283 1 1 0.559313 27.187329 11.771295
284 1 1 0.242682 27.374353 11.675551
285 1 1 0.065632 27.708907 11.641977
286 1 1 30.854777 27.429307 11.678679
287 1 1 30.905264 27.059603 11.750582
288 1 1 30.960793 26.765910 11.985233
289 1 1 0.113872 27.022439 12.184758
290 1 1 0.349140 27.005773 12.482703
291 1 1 0.573450 26.871439 12.758455
292 1 1 0.823508 27.111814 12.913668
293 1 1 1.003079 26.976875 13.220174
294 1 1 1.188978 26.983143 13.551538
295 1 1 1.445981 27.089134 13.810604
296 1 1 1.708995 27.340302 13.700430
297 1 1 1.670910 27.664796 13.506386
298 1 1 1.688130 27.937517 13.770444
299 1 1 1.718744 28.264259 13.962023
300 1 1 1.823468 28.161258 14.312485
301 1 1 1.640912 28.058174 14.629418
302 1 1 1.422692 28.224978 14.892013
303 1 1 1.542411 28.341524 15.233311
304 1 1 1.696877 28.328470 15.580255
305 1 1 1.700744 28.672675 15.741215
306 1 1 1.901208 28.911253 15.523742
307 1 1 2.173040 28.900737 15.258418
308 1 1 2.439218 28.845377 14.992929
309 1 1 2.453283 28.738698 14.628482
310 1 1 2.393567 28.368619 14.566229
311 1 1 2.382154 28.044876 14.764875
312 1 1 2.505916 27.768073 14.993923
313 1 1 2.829871 27.716544 15.185751
314 1 1 3.116178 27.778262 14.943636
315 1 1 3.363594 27.647764 14.686429
316 1 1 3.658204 27.685770 14.449447
317 1 1 3.840665 27.973558 14.281262
318 1 1 3.776302 28.236528 14.014609
319 1 1 3.811841 28.264931 13.637343
320 1 1 3.721985 28.626026 13.560299
321 1 1 3.792798 28.797250 13.228534
322 1 1 4.058087 28.619596 13.022475
323 1 1 4.246407 28.289597 13.028485
324 1 1 4.445267 28.273694 13.351907
325 1 1 4.609368 28.348875 13.686300
326 1 1 4.667245 28.631656 13.933454
327 1 1 4.524509 28.981028 13.889117
328 1 1 4.336513 29.301939 13.811185
329 1 1 4.218263 29.384346 13.459581
330 1 1 4.309124 29.201662 13.139002
331 1 1 4.629965 29.024006 13.039507
332 1 1 4.707944 29.047099 12.668311
333 1 1 4.757855 29.380163 12.492308
334 1 1 4.715206 29.660979 12.744742
335 1 1 4.662137 29.755510 13.108951
336 1 1 4.728941 29.846704 13.471746
337 1 1 4.969016 29.853602 13.766223
338 1 1 5.149623 30.129209 13.955489
339 1 1 5.367317 30.435557 13.899271
340 1 1 5.457541 30.752307 14.088820
341 1 1 5.269355 30.771928 14.418367
342 1 1 5.394171 30.761543 14.777134
343 1 1 5.171634 30.568699 15.017318
344 1 1 4.806524 30.627895 15.104440
345 1 1 4.687929 30.916792 15.320943
346 1 1 4.814533 0.214886 15.213972
347 1 1 4.834905 0.578102 15.104157
348 1 1 4.508145 0.747702 15.198305
349 1 1 4.156438 0.858173 15.290490
350 1 1 4.161372 1.234295 15.344417
351 1 1 3.872511 1.457052 15.237936
352 1 1 3.552532 1.472031 15.033512
353 1 1 3.270997 1.645685 14.846476
354 1 1 3.166318 1.946528 14.639267
355 1 1 3.229763 2.304375 14.528271
356 1 1 3.313969 2.625789 14.712668
357 1 1 3.654444 2.621690 14.881369
358 1 1 3.915795 2.460926 15.105534
359 1 1 4.216631 2.238913 15.037649
360 1 1 4.457744 2.286840 15.327420
361 1 1 4.606267 2.347350 15.671919
362 1 1 4.597324 2.078166 15.939986
363 1 1 4.608277 1.835346 16.232080
364 1 1 4.725518 1.892747 16.588955
365 1 1 4.871762 1.963696 16.932436
366 1 1 4.937264 2.031175 17.300615
367 1 1 4.846938 1.789172 17.579319
368 1 1 4.738159 1.448768 17.708517
369 1 1 4.740179 1.226167 18.016486
370 1 1 5.027490 1.206464 18.264405
371 1 1 5.280571 0.948153 18.381134
372 1 1 5.501267 0.860097 18.084589
373 1 1 5.336356 0.586880 17.878296
374 1 1 5.568934 0.476806 17.598668
375 1 1 5.911976 0.391919 17.458967
376 1 1 6.071189 0.052664 17.396061
377 1 1 6.079724 30.846790 17.109769
378 1 1 5.971811 30.869769 16.746139
379 1 1 5.866808 0.164572 16.609443
380 1 1 6.240755 0.127157 16.553192
381 1 1 6.559151 30.997095 16.440160
382 1 1 6.857219 30.922174 16.663638
383 1 1 6.985788 0.114327 16.394993
384 1 1 6.728721 0.336808 16.225233
385 1 1 6.588177 0.348097 15.872359
386 1 1 6.462788 0.043542 15.682822
387 1 1 6.529430 30.761380 15.499323
388 1 1 6.507608 30.734211 15.877722
389 1 1 6.150755 30.713925 16.006736
390 1 1 6.037954 30.378446 16.145045
391 1 1 6.092338 30.068512 16.358079
392 1 1 6.005567 30.131735 16.722597
393 1 1 6.073767 29.872838 16.992266
394 1 1 6.232114 29.596056 17.198950
395 1 1 6.450618 29.392154 17.433641
396 1 1 6.479061 29.568000 17.769303
397 1 1 6.370362 29.911129 17.891151
398 1 1 6.047394 29.915068 18.091341
399 1 1 5.884330 30.094846 18.383728
400 1 1 5.507178 30.116425 18.342608
401 1 1 5.210414 30.076390 18.576550
402 1 1 4.975818 30.124142 18.871650
403 1 1 4.751603 29.874789 19.050398
404 1 1 4.888688 29.520400 19.046365
405 1 1 5.048115 29.418668 19.375961
406 1 1 5.182130 29.304591 19.712749
407 1 1 5.220314 29.099497 20.030363
408 1 1 5.180659 29.024234 20.400718
409 1 1 5.355893 28.973245 20.734024
410 1 1 5.676917 29.152922 20.829208
411 1 1 5.769234 29.431120 21.071041
412 1 1 5.903587 29.770544 20.965491
413 1 1 5.760825 29.831574 20.618656
414 1 1 5.443298 29.969391 20.461867
415 1 1 5.296153 29.941713 20.112607
416 1 1 5.177885 30.031574 19.762839
417 1 1 5.317478 29.971603 19.414532
418 1 1 5.624936 30.173985 19.320136
419 1 1 5.537473 30.541606 19.360201
420 1 1 5.181001 30.670798 19.385441
421 1 1 4.817128 30.675548 19.494866
422 1 1 4.665509 30.331866 19.552262
423 1 1 4.357905 30.299021 19.331578
424 1 1 4.164323 29.997839 19.204240
425 1 1 4.103797 29.686966 19.414227
426 1 1 4.217598 29.501460 19.725734
427 1 1 4.321000 29.260533 20.000802
428 1 1 4.587087 29.015295 19.884799
429 1 1 4.625687 28.638009 19.861032
430 1 1 4.941202 28.428429 19.830595
431 1 1 5.143621 28.113414 19.895344
432 1 1 5.255702 27.775503 19.762475
433 1 1 5.427566 27.504265 19.965682
434 1 1 5.686011 27.377613 20.213806
435 1 1 6.032265 27.304925 20.075153
436 1 1 6.315401 27.231464 20.317718
437 1 1 6.644615 27.042536 20.335724
438 1 1 6.942751 27.153586 20.127920
439 1 1 6.798842 27.300077 19.808186
440 1 1 6.906390 27.518171 19.516178
441 1 1 6.993178 27.821973 19.305057
442 1 1 6.782442 28.120846 19.201783
443 1 1 6.816553 28.499250 19.194933
444 1 1 6.915169 28.653968 19.527705
445 1 1 6.740927 28.674379 19.864786
446 1 1 6.476551 28.816815 20.097633
447 1 1 6.510429 29.195265 20.102905
448 1 1 6.820477 29.405361 20.167166
449 1 1 6.899724 29.768475 20.246338
450 1 1 7.247454 29.903559 20.318699
451 1 1 11.684015 4.903944 26.311084
452 1 1 11.446917 4.792395 26.035873
453 1 1 11.128964 4.669575 25.867881
454 1 1 10.815803 4.733589 25.662376
455 1 1 10.439296 4.766358 25.622774
456 1 1 10.176528 4.570193 25.430753
457 1 1 9.810644 4.504193 25.509324
458 1 1 9.719298 4.608412 25.863151
459 1 1 9.679061 4.728093 26.221561
460 1 1 9.823091 4.595680 26.547325
461 1 1 9.636706 4.496247 26.863194
462 1 1 9.721242 4.718532 27.159578
463 1 1 9.508890 5.020119 27.250967
464 1 1 9.696929 5.337333 27.342710
465 1 1 9.549356 5.503037 27.651197
466 1 1 9.647924 5.867554 27.693766
467 1 1 9.709219 6.226637 27.801941
468 1 1 10.010996 6.456399 27.778696
469 1 1 10.380470 6.453207 27.867459
470 1 1 10.642416 6.422850 27.593849
471 1 1 10.984744 6.566860 27.513398
472 1 1 11.076527 6.819356 27.244656
473 1 1 11.049139 7.196767 27.209866
474 1 1 11.291732 7.488698 27.227894
475 1 1 11.530737 7.738412 27.385752
476 1 1 11.903738 7.666866 27.398064
477 1 1 12.241196 7.598279 27.237385
478 1 1 12.565394 7.520067 27.055234
479 1 1 12.553376 7.584025 26.680848
480 1 1 12.335975 7.776944 26.436064
481 1 1 11.959127 7.733537 26.458465
482 1 1 11.641369 7.700725 26.252666
483 1 1 11.476348 7.700437 25.910369
484 1 1 11.167948 7.661761 25.691751
485 1 1 11.230261 7.579254 25.326088
486 1 1 11.252345 7.358243 25.017759
487 1 1 11.018814 7.223752 24.749850
488 1 1 11.030583 6.853950 24.663203
489 1 1 11.044178 6.495675 24.789118
490 1 1 11.044272 6.131943 24.899113
491 1 1 11.186911 5.809020 25.039734
492 1 1 11.074472 5.506031 25.239623
493 1 1 10.751238 5.306247 25.237182
494 1 1 10.406400 5.179501 25.140114
495 1 1 10.063976 5.287533 25.015716
496 1 1 10.024278 5.410057 24.658209
497 1 1 9.872099 5.474715 24.316067
498 1 1 9.706246 5.497836 23.974954
499 1 1 9.362546 5.387185 23.856517
500 1 1 9.087632 5.633059 23.947993
501 1 1 8.851936 5.696065 24.239331
502 1 1 8.843743 5.752892 24.614969
503 1 1 8.775251 5.877592 24.967331
504 1 1 8.653755 6.236078 25.000896
505 1 1 8.488504 6.567441 24.915512
506 1 1 8.637946 6.785035 24.642163
507 1 1 8.824503 6.650520 24.339669
508 1 1 9.015266 6.803902 24.049009
509 1 1 9.058822 6.536633 23.782418
510 1 1 9.006525 6.622385 23.415933
511 1 1 8.678409 6.695557 23.238772
512 1 1 8.578286 6.653116 22.874665
513 1 1 8.520663 6.432335 22.570798
514 1 1 8.387354 6.112789 22.414213
515 1 1 8.319739 5.863580 22.693002
516 1 1 8.548243 5.807524 22.991404
517 1 1 8.834555 5.718451 23.224838
518 1 1 9.181295 5.810150 23.099290
519 1 1 9.329763 6.046013 22.840976
520 1 1 9.490629 6.344318 22.669117
521 1 1 9.454386 6.718256 22.726187
522 1 1 9.593248 7.047029 22.595704
523 1 1 9.740696 7.259252 22.874309
524 1 1 9.865126 7.171121 23.222375
525 1 1 10.146121 7.307181 23.439007
526 1 1 10.216829 7.518194 23.747023
527 1 1 10.409737 7.415012 24.057732
528 1 1 10.666720 7.677123 24.156003
529 1 1 10.994132 7.869692 24.145080
530 1 1 11.280854 7.621407 24.121731
531 1 1 11.539900 7.606861 24.399369
532 1 1 11.807563 7.647561 24.666016
533 1 1 11.984414 7.411333 24.905432
534 1 1 12.082565 7.600880 25.219818
535 1 1 11.859240 7.907839 25.237197
536 1 1 12.064511 8.171528 25.418119
537 1 1 12.296527 8.215909 25.715774
538 1 1 12.595302 8.446512 25.759996
539 1 1 12.879461 8.377939 25.517198
540 1 1 12.925052 8.175121 25.199100
541 1 1 12.803470 8.316405 24.867955
542 1 1 12.480481 8.318393 24.667770
543 1 1 12.462304 8.102684 24.355458
544 1 1 12.352245 8.059774 23.994285
545 1 1 12.147787 7.996510 23.680287
546 1 1 11.918056 7.770776 23.478624
547 1 1 11.601878 7.660957 23.298704
548 1 1 11.318676 7.908350 23.353421
549 1 1 11.412188 8.230197 23.174341
550 1 1 11.760659 8.213957 23.023661
551 1 1 12.082246 8.065313 22.886232
552 1 1 12.435999 7.931470 22.849566
553 1 1 12.671301 7.656910 22.732735
554 1 1 12.642796 7.428182 22.430623
555 1 1 12.977133 7.263269 22.356985
556 1 1 13.228117 7.005065 22.235586
557 1 1 13.131696 6.853335 21.900801
558 1 1 13.158872 6.938460 21.531457
559 1 1 13.221186 7.276432 21.369310
560 1 1 13.148740 7.280551 20.996302
561 1 1 13.044594 6.984428 20.782141
562 1 1 12.900760 6.746295 20.523289
563 1 1 13.019530 6.455774 20.309067
564 1 1 13.128135 6.571375 19.963754
565 1 1 12.956201 6.847182 19.766856
566 1 1 12.908557 7.207933 19.657361
567 1 1 12.553188 7.340216 19.682145
568 1 1 12.216804 7.438945 19.828768
569 1 1 12.092943 7.553388 20.169298
570 1 1 12.350287 7.514446 20.446169
571 1 1 12.495342 7.788359 20.666012
572 1 1 12.604032 7.624748 20.991308
573 1 1 12.319553 7.464169 21.185437
574 1 1 11.993290 7.328066 21.046051
575 1 1 11.691099 7.550971 20.987798
576 1 1 11.705547 7.922919 20.911339
577 1 1 11.423997 8.136558 20.771739
578 1 1 11.218036 8.105779 20.453883
579 1 1 11.029262 8.068173 20.126239
580 1 1 11.132330 8.144990 19.768642
581 1 1 11.470934 8.266483 19.646222
582 1 1 11.824764 8.141932 19.706981
583 1 1 12.073911 8.403701 19.589494
584 1 1 12.323201 8.683564 19.652193
585 1 1 12.691145 8.589352 19.664073
586 1 1 13.008931 8.457291 19.502915
587 1 1 13.351676 8.417716 19.662161
588 1 1 13.500261 8.078046 19.745510
589 1 1 13.851038 7.978474 19.638547
590 1 1 14.139305 8.177253 19.490937
591 1 1 14.127868 8.228839 19.114629
592 1 1 14.068662 8.179921 18.742470
593 1 1 14.073879 8.178126 18.362510
594 1 1 13.906588 8.379143 18.086819
595 1 1 14.164468 8.425976 17.811675
596 1 1 14.413782 8.139200 17.810419
597 1 1 14.317819 7.930857 17.507459
598 1 1 13.951082 7.831338 17.507041
599 1 1 13.653909 7.948751 17.301365
600 1 1 13.311524 8.040240 17.164243
601 1 1 13.098807 8.309571 17.327374
602 1 1 13.335067 8.500211 17.555929
603 1 1 13.432289 8.865980 17.521853
604 1 1 13.723189 8.967857 17.299596
605 1 1 14.059139 9.108255 17.190850
606 1 1 14.269528 9.089076 16.874988
607 1 1 14.069908 9.078000 16.551833
608 1 1 14.114804 9.378656 16.323819
609 1 1 13.882695 9.566266 16.088601
610 1 1 13.925809 9.609326 15.713518
611 1 1 13.762285 9.840897 15.460467
612 1 1 13.411386 9.986717 15.457960
613 1 1 13.090787 9.953337 15.256709
614 1 1 13.102643 10.143070 14.927678
615 1 1 12.963690 10.349112 14.640209
616 1 1 12.849895 10.388631 14.279808
617 1 1 12.789209 10.201316 13.954800
618 1 1 12.998126 10.345984 13.672266
619 1 1 12.886320 10.419907 13.316690
620 1 1 12.753331 10.774977 13.291395
621 1 1 12.822987 11.051952 13.542059
622 1 1 12.834674 10.923820 13.899614
623 1 1 12.858124 11.225845 14.129028
624 1 1 13.192469 11.397732 14.184424
625 1 1 13.501638 11.250799 14.349425
626 1 1 13.870489 11.192621 14.278965
627 1 1 14.026190 10.972800 14.010943
628 1 1 14.394568 10.934889 14.096151
629 1 1 14.754373 11.051069 14.058172
630 1 1 15.033068 10.930377 13.829781
631 1 1 15.224540 11.229846 13.695404
632 1 1 15.497750 11.493419 13.678503
633 1 1 15.762441 11.532871 13.408721
634 1 1 15.926554 11.476472 13.070659
635 1 1 15.889647 11.273813 12.751336
636 1 1 16.063836 11.102262 12.460426
637 1 1 16.396827 10.944018 12.552488
638 1 1 16.509401 10.653971 12.334314
639 1 1 16.579232 10.326987 12.514881
640 1 1 16.424448 10.001276 12.395071
641 1 1 16.671743 9.712768 12.392158
642 1 1 16.706062 9.551639 12.049727
643 1 1 16.962814 9.271866 12.064068
644 1 1 16.954413 9.002675 11.795991
645 1 1 16.958164 8.718625 11.543599
646 1 1 16.849103 8.793689 11.187409
647 1 1 16.951035 8.941881 10.852672
648 1 1 17.329517 8.970993 10.870117
649 1 1 17.401311 9.107729 11.217318
650 1 1 17.746577 9.167746 11.364250
651 1 1 18.066181 9.253147 11.177273
652 1 1 18.178667 8.996804 10.920300
653 1 1 18.026721 8.666301 11.030207
654 1 1 17.881876 8.514704 10.713287
655 1 1 17.813507 8.360210 10.372909
656 1 1 17.879590 8.033119 10.191128
657 1 1 17.630444 7.970830 9.911044
658 1 1 17.677575 7.618278 9.777305
659 1 1 17.442691 7.351013 9.643893
660 1 1 17.441528 7.113550 9.347228
661 1 1 17.419321 6.741904 9.271163
662 1 1 17.210287 6.446972 9.154028
663 1 1 16.852893 6.575737 9.163465
664 1 1 16.557108 6.608598 8.927178
665 1 1 16.525057 6.630158 8.549147
666 1 1 16.812807 6.468814 8.360553
667 1 1 17.127493 6.648172 8.245645
668 1 1 17.194397 6.726504 7.879875
669 1 1 17.393311 7.045809 7.826232
670 1 1 17.761627 7.082942 7.912049
671 1 1 17.938516 7.394651 8.038332
672 1 1 18.071449 7.739073 8.128346
673 1 1 18.226137 7.785636 8.472299
674 1 1 18.473789 8.043864 8.600310
675 1 1 18.839714 8.146326 8.599842
676 1 1 19.154704 8.167705 8.388360
677 1 1 19.393817 8.454589 8.458518
678 1 1 19.740861 8.593048 8.389312
679 1 1 19.727114 8.962563 8.301736
680 1 1 19.950123 9.063561 8.011105
681 1 1 20.123699 9.158760 7.686747
682 1 1 20.434966 9.139235 7.469648
683 1 1 20.805666 9.154289 7.551837
684 1 1 20.968354 9.497586 7.542911
685 1 1 20.778215 9.804305 7.423870
686 1 1 20.478619 9.987021 7.569669
687 1 1 20.110020 9.924207 7.501929
688 1 1 19.758662 9.838012 7.618197
689 1 1 19.497213 10.087291 7.736115
690 1 1 19.399845 10.436398 7.850325
691 1 1 19.236264 10.779385 7.851394
692 1 1 19.249356 10.993100 7.537460
693 1 1 19.150199 11.117450 7.192344
694 1 1 19.122299 11.354067 6.896314
695 1 1 18.910020 11.534848 6.638135
696 1 1 18.690103 11.716722 6.387220
697 1 1 18.318261 11.639715 6.372940
698 1 1 18.164484 11.674349 6.718704
699 1 1 18.368733 11.814123 7.007054
700 1 1 18.614246 12.022368 7.208938
701 1 1 18.961327 11.886333 7.135254
702 1 1 19.183116 12.194068 7.112688
703 1 1 19.093334 12.476771 6.875164
704 1 1 19.425116 12.577999 6.720006
705 1 1 19.403461 12.586753 6.340725
706 1 1 19.216799 12.779053 6.071321
707 1 1 19.120447 12.695607 5.713337
708 1 1 18.903645 12.671625 5.402175
709 1 1 18.910196 12.840167 5.061660
710 1 1 19.096099 13.106113 4.863890
711 1 1 19.181375 13.439426 5.025230
712 1 1 19.340969 13.566780 5.345715
713 1 1 19.384482 13.509191 5.718797
714 1 1 19.357593 13.618999 6.081590
715 1 1 19.228589 13.547326 6.431763
716 1 1 18.864593 13.649436 6.470244
717 1 1 18.710143 13.835319 6.763489
718 1 1 18.836504 14.177058 6.871412
719 1 1 18.741830 14.326175 7.207866
720 1 1 18.636692 14.625505 7.417024
721 1 1 18.937287 14.776458 7.593817
722 1 1 19.194501 15.043688 7.676455
723 1 1 19.040835 15.379970 7.588697
724 1 1 18.931478 15.507908 7.248002
725 1 1 18.775312 15.850759 7.198350
726 1 1 18.404314 15.858864 7.116529
727 1 1 18.211096 16.110079 6.906866
728 1 1 18.246904 16.081476 6.529640
729 1 1 18.196986 16.423470 6.371689
730 1 1 18.278992 16.791018 6.320862
731 1 1 18.596454 16.911885 6.491181
732 1 1 18.564421 16.916480 6.869801
733 1 1 18.783890 16.727758 7.116006
734 1 1 19.162929 16.754744 7.115097
735 1 1 19.363642 16.473882 7.273939
736 1 1 19.618972 16.401642 7.545947
737 1 1 19.955477 16.463690 7.711217
738 1 1 20.268279 16.335832 7.885019
739 1 1 20.473029 16.647241 7.959194
740 1 1 20.659790 16.729738 7.638703
741 1 1 20.669353 16.584574 7.287653
742 1 1 20.415955 16.419418 7.057625
743 1 1 20.292055 16.107514 7.235851
744 1 1 20.152483 15.789105 7.389263
745 1 1 20.352073 15.466726 7.364054
746 1 1 20.725346 15.462619 7.292991
747 1 1 20.916431 15.137469 7.339515
748 1 1 20.849458 14.783216 7.459596
749 1 1 20.952400 14.511261 7.214967
750 1 1 20.755603 14.553726 6.892682
751 1 1 20.379456 14.502857 6.910713
752 1 1 20.061724 14.538587 6.705359
753 1 1 19.714874 14.676591 6.634299
754 1 1 19.528336 14.436225 6.406642
755 1 1 19.632016 14.509940 6.048568
756 1 1 19.500996 14.544677 5.693566
757 1 1 19.774070 14.436503 5.452467
758 1 1 19.943735 14.611029 5.160654
759 1 1 20.123571 14.835752 4.912545
760 1 1 20.469706 14.946459 5.023604
761 1 1 20.793435 14.970331 4.826044
762 1 1 21.136240 15.122503 4.887104
763 1 1 21.316337 15.045294 5.212687
764 1 1 21.145539 14.780625 5.425238
765 1 1 21.074144 14.430209 5.553734
766 1 1 20.879177 14.386731 5.876995
767 1 1 20.834651 14.061623 6.068624
768 1 1 20.902251 14.088065 6.441627
769 1 1 21.256477 14.189641 6.534397
770 1 1 21.580145 14.003143 6.604091
771 1 1 21.485784 13.635062 6.600588
772 1 1 21.386260 13.321869 6.791389
773 1 1 21.084858 13.092060 6.818680
774 1 1 20.979350 12.833160 6.561311
775 1 1 20.795331 12.555867 6.377885
776 1 1 20.681707 12.712230 6.050715
777 1 1 20.337745 12.871095 6.021526
778 1 1 20.043420 13.101496 5.953056
779 1 1 19.934402 13.193892 5.600951
780 1 1 19.701201 12.936247 5.447209
781 1 1 19.759040 12.589501 5.591508
782 1 1 20.002952 12.384648 5.384283
783 1 1 20.022488 12.302385 5.013809
784 1 1 19.852262 12.208845 4.687200
785 1 1 19.617111 12.108564 4.406046
786 1 1 19.318421 12.295514 4.263800
787 1 1 19.180569 12.637131 4.357044
788 1 1 19.073600 12.943974 4.160055
789 1 1 18.948069 12.990217 3.804381
790 1 1 18.771011 13.221594 3.560424
791 1 1 18.408094 13.334007 3.553014
792 1 1 18.127271 13.517883 3.374891
793 1 1 18.049872 13.790024 3.121220
794 1 1 17.895094 14.122337 3.021160
795 1 1 17.815015 14.482592 2.930587
796 1 1 17.967055 14.654050 2.627460
797 1 1 18.160733 14.785704 2.328200
798 1 1 18.197365 14.557639 2.026465
799 1 1 18.412234 14.261031 1.925199
800 1 1 18.491092 13.893351 1.870491
801 1 1 18.681046 13.565734 1.901869
802 1 1 18.432940 13.306174 2.026256
803 1 1 18.186493 13.031292 1.936234
804 1 1 17.863719 12.830896 1.928614
805 1 1 17.601399 13.051480 2.092720
806 1 1 17.492451 13.408773 2.162519
807 1 1 17.137084 13.492818 2.267640
808 1 1 16.882641 13.670984 2.486537
809 1 1 16.684618 13.485080 2.752293
810 1 1 16.324069 13.600819 2.784061