LAMMPS chain data file

1050 atoms
950 bonds
0 angles
0 dihedrals
0 impropers

4 atom types
2 bond types
0 angle types
0 dihedral types
0 improper types

-50.00000 50.00000 xlo xhi
-12.50000 12.50000 ylo yhi
-12.50000 12.50000 zlo zhi

Masses

1 18.84956
2  5.65487
3  5.65487
4 28.27433

Atoms

1 1 1 -18 8.75 11.25
2 2 1 -14 8.75 11.25
3 3 1 -10 8.75 11.25
4 4 1 -6 8.75 11.25
5 5 1 -2 8.75 11.25
6 6 1 2 8.75 11.25
7 7 1 6 8.75 11.25
8 8 1 10 8.75 11.25
9 9 1 14 8.75 11.25
10 10 1 18 8.75 11.25
11 1 2 -17 8.75 11.25
12 2 2 -13 8.75 11.25
13 3 2 -9 8.75 11.25
14 4 2 -5 8.75 11.25
15 5 2 -1 8.75 11.25
16 6 3 3 8.75 11.25
17 7 3 7 8.75 11.25
18 8 3 11 8.75 11.25
19 9 3 15 8.75 11.25
20 10 3 19 8.75 11.25
21 11 1 -18 -8.75 -3.75
22 12 1 -14 -8.75 -3.75
23 13 1 -10 -8.75 -3.75
24 14 1 -6 -8.75 -3.75
25 15 1 -2 -8.75 -3.75
26 16 1 2 -8.75 -3.75
27 17 1 6 -8.75 -3.75
28 18 1 10 -8.75 -3.75
29 19 1 14 -8.75 -3.75
30 20 1 18 -8.75 -3.75
31 11 2 -17 -8.75 -3.75
32 12 2 -13 -8.75 -3.75
33 13 2 -9 -8.75 -3.75
34 14 2 -5 -8.75 -3.75
35 15 2 -1 -8.75 -3.75
36 16 3 3 -8.75 -3.75
37 17 3 7 -8.75 -3.75
38 18 3 11 -8.75 -3.75
39 19 3 15 -8.75 -3.75
40 20 3 19 -8.75 -3.75
41 21 1 -18 11.25 -3.75
42 22 1 -14 11.25 -3.75
43 23 1 -10 11.25 -3.75
44 24 1 -6 11.25 -3.75
45 25 1 -2 11.25 -3.75
46 26 1 2 11.25 -3.75
47 27 1 6 11.25 -3.75
48 28 1 10 11.25 -3.75
49 29 1 14 11.25 -3.75
50 30 1 18 11.25 -3.75
51 21 2 -17 11.25 -3.75
52 22 2 -13 11.25 -3.75
53 23 2 -9 11.25 -3.75
54 24 2 -5 11.25 -3.75
55 25 2 -1 11.25 -3.75
56 26 3 3 11.25 -3.75
57 27 3 7 11.25 -3.75
58 28 3 11 11.25 -3.75
59 29 3 15 11.25 -3.75
60 30 3 19 11.25 -3.75
61 31 1 -18 -8.75 -6.25
62 32 1 -14 -8.75 -6.25
63 33 1 -10 -8.75 -6.25
64 34 1 -6 -8.75 -6.25
65 35 1 -2 -8.75 -6.25
66 36 1 2 -8.75 -6.25
67 37 1 6 -8.75 -6.25
68 38 1 10 -8.75 -6.25
69 39 1 14 -8.75 -6.25
70 40 1 18 -8.75 -6.25
71 31 2 -17 -8.75 -6.25
72 32 2 -13 -8.75 -6.25
73 33 2 -9 -8.75 -6.25
74 34 2 -5 -8.75 -6.25
75 35 2 -1 -8.75 -6.25
76 36 3 3 -8.75 -6.25
77 37 3 7 -8.75 -6.25
78 38 3 11 -8.75 -6.25
79 39 3 15 -8.75 -6.25
80 40 3 19 -8.75 -6.25
81 41 1 -18 -3.75 -3.75
82 42 1 -14 -3.75 -3.75
83 43 1 -10 -3.75 -3.75
84 44 1 -6 -3.75 -3.75
85 45 1 -2 -3.75 -3.75
86 46 1 2 -3.75 -3.75
87 47 1 6 -3.75 -3.75
88 48 1 10 -3.75 -3.75
89 49 1 14 -3.75 -3.75
90 50 1 18 -3.75 -3.75
91 41 2 -17 -3.75 -3.75
92 42 2 -13 -3.75 -3.75
93 43 2 -9 -3.75 -3.75
94 44 2 -5 -3.75 -3.75
95 45 2 -1 -3.75 -3.75
96 46 3 3 -3.75 -3.75
97 47 3 7 -3.75 -3.75
98 48 3 11 -3.75 -3.75
99 49 3 15 -3.75 -3.75
100 50 3 19 -3.75 -3.75
101 51 1 -18 -8.75 11.25
102 52 1 -14 -8.75 11.25
103 53 1 -10 -8.75 11.25
104 54 1 -6 -8.75 11.25
105 55 1 -2 -8.75 11.25
106 56 1 2 -8.75 11.25
107 57 1 6 -8.75 11.25
108 58 1 10 -8.75 11.25
109 59 1 14 -8.75 11.25
110 60 1 18 -8.75 11.25
111 51 2 -17 -8.75 11.25
112 52 2 -13 -8.75 11.25
113 53 2 -9 -8.75 11.25
114 54 2 -5 -8.75 11.25
115 55 2 -1 -8.75 11.25
116 56 3 3 -8.75 11.25
117 57 3 7 -8.75 11.25
118 58 3 11 -8.75 11.25
119 59 3 15 -8.75 11.25
120 60 3 19 -8.75 11.25
121 61 1 -18 -11.25 11.25
122 62 1 -14 -11.25 11.25
123 63 1 -10 -11.25 11.25
124 64 1 -6 -11.25 11.25
125 65 1 -2 -11.25 11.25
126 66 1 2 -11.25 11.25
127 67 1 6 -11.25 11.25
128 68 1 10 -11.25 11.25
129 69 1 14 -11.25 11.25
130 70 1 18 -11.25 11.25
131 61 2 -17 -11.25 11.25
132 62 2 -13 -11.25 11.25
133 63 2 -9 -11.25 11.25
134 64 2 -5 -11.25 11.25
135 65 2 -1 -11.25 11.25
136 66 3 3 -11.25 11.25
137 67 3 7 -11.25 11.25
138 68 3 11 -11.25 11.25
139 69 3 15 -11.25 11.25
140 70 3 19 -11.25 11.25
141 71 1 -18 -1.25 -3.75
142 72 1 -14 -1.25 -3.75
143 73 1 -10 -1.25 -3.75
144 74 1 -6 -1.25 -3.75
145 75 1 -2 -1.25 -3.75
146 76 1 2 -1.25 -3.75
147 77 1 6 -1.25 -3.75
148 78 1 10 -1.25 -3.75
149 79 1 14 -1.25 -3.75
150 80 1 18 -1.25 -3.75
151 71 2 -17 -1.25 -3.75
152 72 2 -13 -1.25 -3.75
153 73 2 -9 -1.25 -3.75
154 74 2 -5 -1.25 -3.75
155 75 2 -1 -1.25 -3.75
156 76 3 3 -1.25 -3.75
157 77 3 7 -1.25 -3.75
158 78 3 11 -1.25 -3.75
159 79 3 15 -1.25 -3.75
160 80 3 19 -1.25 -3.75
161 81 1 -18 1.25 -11.25
162 82 1 -14 1.25 -11.25
163 83 1 -10 1.25 -11.25
164 84 1 -6 1.25 -11.25
165 85 1 -2 1.25 -11.25
166 86 1 2 1.25 -11.25
167 87 1 6 1.25 -11.25
168 88 1 10 1.25 -11.25
169 89 1 14 1.25 -11.25
170 90 1 18 1.25 -11.25
171 81 2 -17 1.25 -11.25
172 82 2 -13 1.25 -11.25
173 83 2 -9 1.25 -11.25
174 84 2 -5 1.25 -11.25
175 85 2 -1 1.25 -11.25
176 86 3 3 1.25 -11.25
177 87 3 7 1.25 -11.25
178 88 3 11 1.25 -11.25
179 89 3 15 1.25 -11.25
180 90 3 19 1.25 -11.25
181 91 1 -18 -1.25 1.25
182 92 1 -14 -1.25 1.25
183 93 1 -10 -1.25 1.25
184 94 1 -6 -1.25 1.25
185 95 1 -2 -1.25 1.25
186 96 1 2 -1.25 1.25
187 97 1 6 -1.25 1.25
188 98 1 10 -1.25 1.25
189 99 1 14 -1.25 1.25
190 100 1 18 -1.25 1.25
191 91 2 -17 -1.25 1.25
192 92 2 -13 -1.25 1.25
193 93 2 -9 -1.25 1.25
194 94 2 -5 -1.25 1.25
195 95 2 -1 -1.25 1.25
196 96 3 3 -1.25 1.25
197 97 3 7 -1.25 1.25
198 98 3 11 -1.25 1.25
199 99 3 15 -1.25 1.25
200 100 3 19 -1.25 1.25
201 101 1 -18 -6.25 -11.25
202 102 1 -14 -6.25 -11.25
203 103 1 -10 -6.25 -11.25
204 104 1 -6 -6.25 -11.25
205 105 1 -2 -6.25 -11.25
206 106 1 2 -6.25 -11.25
207 107 1 6 -6.25 -11.25
208 108 1 10 -6.25 -11.25
209 109 1 14 -6.25 -11.25
210 110 1 18 -6.25 -11.25
211 101 2 -17 -6.25 -11.25
212 102 2 -13 -6.25 -11.25
213 103 2 -9 -6.25 -11.25
214 104 2 -5 -6.25 -11.25
215 105 2 -1 -6.25 -11.25
216 106 3 3 -6.25 -11.25
217 107 3 7 -6.25 -11.25
218 108 3 11 -6.25 -11.25
219 109 3 15 -6.25 -11.25
220 110 3 19 -6.25 -11.25
221 111 1 -18 1.25 11.25
222 112 1 -14 1.25 11.25
223 113 1 -10 1.25 11.25
224 114 1 -6 1.25 11.25
225 115 1 -2 1.25 11.25
226 116 1 2 1.25 11.25
227 117 1 6 1.25 11.25
228 118 1 10 1.25 11.25
229 119 1 14 1.25 11.25
230 120 1 18 1.25 11.25
231 111 2 -17 1.25 11.25
232 112 2 -13 1.25 11.25
233 113 2 -9 1.25 11.25
234 114 2 -5 1.25 11.25
235 115 2 -1 1.25 11.25
236 116 3 3 1.25 11.25
237 117 3 7 1.25 11.25
238 118 3 11 1.25 11.25
239 119 3 15 1.25 11.25
240 120 3 19 1.25 11.25
241 121 1 -18 6.25 3.75
242 122 1 -14 6.25 3.75
243 123 1 -10 6.25 3.75
244 124 1 -6 6.25 3.75
245 125 1 -2 6.25 3.75
246 126 1 2 6.25 3.75
247 127 1 6 6.25 3.75
248 128 1 10 6.25 3.75
249 129 1 14 6.25 3.75
250 130 1 18 6.25 3.75
251 121 2 -17 6.25 3.75
252 122 2 -13 6.25 3.75
253 123 2 -9 6.25 3.75
254 124 2 -5 6.25 3.75
255 125 2 -1 6.25 3.75
256 126 3 3 6.25 3.75
257 127 3 7 6.25 3.75
258 128 3 11 6.25 3.75
259 129 3 15 6.25 3.75
260 130 3 19 6.25 3.75
261 131 1 -18 1.25 -8.75
262 132 1 -14 1.25 -8.75
263 133 1 -10 1.25 -8.75
264 134 1 -6 1.25 -8.75
265 135 1 -2 1.25 -8.75
266 136 1 2 1.25 -8.75
267 137 1 6 1.25 -8.75
268 138 1 10 1.25 -8.75
269 139 1 14 1.25 -8.75
270 140 1 18 1.25 -8.75
271 131 2 -17 1.25 -8.75
272 132 2 -13 1.25 -8.75
273 133 2 -9 1.25 -8.75
274 134 2 -5 1.25 -8.75
275 135 2 -1 1.25 -8.75
276 136 3 3 1.25 -8.75
277 137 3 7 1.25 -8.75
278 138 3 11 1.25 -8.75
279 139 3 15 1.25 -8.75
280 140 3 19 1.25 -8.75
281 141 1 -18 8.75 3.75
282 142 1 -14 8.75 3.75
283 143 1 -10 8.75 3.75
284 144 1 -6 8.75 3.75
285 145 1 -2 8.75 3.75
286 146 1 2 8.75 3.75
287 147 1 6 8.75 3.75
288 148 1 10 8.75 3.75
289 149 1 14 8.75 3.75
290 150 1 18 8.75 3.75
291 141 2 -17 8.75 3.75
292 142 2 -13 8.75 3.75
293 143 2 -9 8.75 3.75
294 144 2 -5 8.75 3.75
295 145 2 -1 8.75 3.75
296 146 3 3 8.75 3.75
297 147 3 7 8.75 3.75
298 148 3 11 8.75 3.75
299 149 3 15 8.75 3.75
300 150 3 19 8.75 3.75
301 151 1 -18 -11.25 -8.75
302 152 1 -14 -11.25 -8.75
303 153 1 -10 -11.25 -8.75
304 154 1 -6 -11.25 -8.75
305 155 1 -2 -11.25 -8.75
306 156 1 2 -11.25 -8.75
307 157 1 6 -11.25 -8.75
308 158 1 10 -11.25 -8.75
309 159 1 14 -11.25 -8.75
310 160 1 18 -11.25 -8.75
311 151 2 -17 -11.25 -8.75
312 152 2 -13 -11.25 -8.75
313 153 2 -9 -11.25 -8.75
314 154 2 -5 -11.25 -8.75
315 155 2 -1 -11.25 -8.75
316 156 3 3 -11.25 -8.75
317 157 3 7 -11.25 -8.75
318 158 3 11 -11.25 -8.75
319 159 3 15 -11.25 -8.75
320 160 3 19 -11.25 -8.75
321 161 1 -18 -3.75 1.25
322 162 1 -14 -3.75 1.25
323 163 1 -10 -3.75 1.25
324 164 1 -6 -3.75 1.25
325 165 1 -2 -3.75 1.25
326 166 1 2 -3.75 1.25
327 167 1 6 -3.75 1.25
328 168 1 10 -3.75 1.25
329 169 1 14 -3.75 1.25
330 170 1 18 -3.75 1.25
331 161 2 -17 -3.75 1.25
332 162 2 -13 -3.75 1.25
333 163 2 -9 -3.75 1.25
334 164 2 -5 -3.75 1.25
335 165 2 -1 -3.75 1.25
336 166 3 3 -3.75 1.25
337 167 3 7 -3.75 1.25
338 168 3 11 -3.75 1.25
339 169 3 15 -3.75 1.25
340 170 3 19 -3.75 1.25
341 171 1 -18 11.25 -6.25
342 172 1 -14 11.25 -6.25
343 173 1 -10 11.25 -6.25
344 174 1 -6 11.25 -6.25
345 175 1 -2 11.25 -6.25
346 176 1 2 11.25 -6.25
347 177 1 6 11.25 -6.25
348 178 1 10 11.25 -6.25
349 179 1 14 11.25 -6.25
350 180 1 18 11.25 -6.25
351 171 2 -17 11.25 -6.25
352 172 2 -13 11.25 -6.25
353 173 2 -9 11.25 -6.25
354 174 2 -5 11.25 -6.25
355 175 2 -1 11.25 -6.25
356 176 3 3 11.25 -6.25
357 177 3 7 11.25 -6.25
358 178 3 11 11.25 -6.25
359 179 3 15 11.25 -6.25
360 180 3 19 11.25 -6.25
361 181 1 -18 -1.25 -1.25
362 182 1 -14 -1.25 -1.25
363 183 1 -10 -1.25 -1.25
364 184 1 -6 -1.25 -1.25
365 185 1 -2 -1.25 -1.25
366 186 1 2 -1.25 -1.25
367 187 1 6 -1.25 -1.25
368 188 1 10 -1.25 -1.25
369 189 1 14 -1.25 -1.25
370 190 1 18 -1.25 -1.25
371 181 2 -17 -1.25 -1.25
372 182 2 -13 -1.25 -1.25
373 183 2 -9 -1.25 -1.25
374 184 2 -5 -1.25 -1.25
375 185 2 -1 -1.25 -1.25
376 186 3 3 -1.25 -1.25
377 187 3 7 -1.25 -1.25
378 188 3 11 -1.25 -1.25
379 189 3 15 -1.25 -1.25
380 190 3 19 -1.25 -1.25
381 191 1 -18 3.75 6.25
382 192 1 -14 3.75 6.25
383 193 1 -10 3.75 6.25
384 194 1 -6 3.75 6.25
385 195 1 -2 3.75 6.25
386 196 1 2 3.75 6.25
387 197 1 6 3.75 6.25
388 198 1 10 3.75 6.25
389 199 1 14 3.75 6.25
390 200 1 18 3.75 6.25
391 191 2 -17 3.75 6.25
392 192 2 -13 3.75 6.25
393 193 2 -9 3.75 6.25
394 194 2 -5 3.75 6.25
395 195 2 -1 3.75 6.25
396 196 3 3 3.75 6.25
397 197 3 7 3.75 6.25
398 198 3 11 3.75 6.25
399 199 3 15 3.75 6.25
400 200 3 19 3.75 6.25
401 201 1 -18 11.25 1.25
402 202 1 -14 11.25 1.25
403 203 1 -10 11.25 1.25
404 204 1 -6 11.25 1.25
405 205 1 -2 11.25 1.25
406 206 1 2 11.25 1.25
407 207 1 6 11.25 1.25
408 208 1 10 11.25 1.25
409 209 1 14 11.25 1.25
410 210 1 18 11.25 1.25
411 201 2 -17 11.25 1.25
412 202 2 -13 11.25 1.25
413 203 2 -9 11.25 1.25
414 204 2 -5 11.25 1.25
415 205 2 -1 11.25 1.25
416 206 3 3 11.25 1.25
417 207 3 7 11.25 1.25
418 208 3 11 11.25 1.25
419 209 3 15 11.25 1.25
420 210 3 19 11.25 1.25
421 211 1 -18 -3.75 6.25
422 212 1 -14 -3.75 6.25
423 213 1 -10 -3.75 6.25
424 214 1 -6 -3.75 6.25
425 215 1 -2 -3.75 6.25
426 216 1 2 -3.75 6.25
427 217 1 6 -3.75 6.25
428 218 1 10 -3.75 6.25
429 219 1 14 -3.75 6.25
430 220 1 18 -3.75 6.25
431 211 2 -17 -3.75 6.25
432 212 2 -13 -3.75 6.25
433 213 2 -9 -3.75 6.25
434 214 2 -5 -3.75 6.25
435 215 2 -1 -3.75 6.25
436 216 3 3 -3.75 6.25
437 217 3 7 -3.75 6.25
438 218 3 11 -3.75 6.25
439 219 3 15 -3.75 6.25
440 220 3 19 -3.75 6.25
441 221 1 -18 6.25 6.25
442 222 1 -14 6.25 6.25
443 223 1 -10 6.25 6.25
444 224 1 -6 6.25 6.25
445 225 1 -2 6.25 6.25
446 226 1 2 6.25 6.25
447 227 1 6 6.25 6.25
448 228 1 10 6.25 6.25
449 229 1 14 6.25 6.25
450 230 1 18 6.25 6.25
451 221 2 -17 6.25 6.25
452 222 2 -13 6.25 6.25
453 223 2 -9 6.25 6.25
454 224 2 -5 6.25 6.25
455 225 2 -1 6.25 6.25
456 226 3 3 6.25 6.25
457 227 3 7 6.25 6.25
458 228 3 11 6.25 6.25
459 229 3 15 6.25 6.25
460 230 3 19 6.25 6.25
461 231 1 -18 -8.75 6.25
462 232 1 -14 -8.75 6.25
463 233 1 -10 -8.75 6.25
464 234 1 -6 -8.75 6.25
465 235 1 -2 -8.75 6.25
466 236 1 2 -8.75 6.25
467 237 1 6 -8.75 6.25
468 238 1 10 -8.75 6.25
469 239 1 14 -8.75 6.25
470 240 1 18 -8.75 6.25
471 231 2 -17 -8.75 6.25
472 232 2 -13 -8.75 6.25
473 233 2 -9 -8.75 6.25
474 234 2 -5 -8.75 6.25
475 235 2 -1 -8.75 6.25
476 236 3 3 -8.75 6.25
477 237 3 7 -8.75 6.25
478 238 3 11 -8.75 6.25
479 239 3 15 -8.75 6.25
480 240 3 19 -8.75 6.25
481 241 1 -18 -8.75 3.75
482 242 1 -14 -8.75 3.75
483 243 1 -10 -8.75 3.75
484 244 1 -6 -8.75 3.75
485 245 1 -2 -8.75 3.75
486 246 1 2 -8.75 3.75
487 247 1 6 -8.75 3.75
488 248 1 10 -8.75 3.75
489 249 1 14 -8.75 3.75
490 250 1 18 -8.75 3.75
491 241 2 -17 -8.75 3.75
492 242 2 -13 -8.75 3.75
493 243 2 -9 -8.75 3.75
494 244 2 -5 -8.75 3.75
495 245 2 -1 -8.75 3.75
496 246 3 3 -8.75 3.75
497 247 3 7 -8.75 3.75
498 248 3 11 -8.75 3.75
499 249 3 15 -8.75 3.75
500 250 3 19 -8.75 3.75
501 251 1 -18 11.25 3.75
502 252 1 -14 11.25 3.75
503 253 1 -10 11.25 3.75
504 254 1 -6 11.25 3.75
505 255 1 -2 11.25 3.75
506 256 1 2 11.25 3.75
507 257 1 6 11.25 3.75
508 258 1 10 11.25 3.75
509 259 1 14 11.25 3.75
510 260 1 18 11.25 3.75
511 251 2 -17 11.25 3.75
512 252 2 -13 11.25 3.75
513 253 2 -9 11.25 3.75
514 254 2 -5 11.25 3.75
515 255 2 -1 11.25 3.75
516 256 3 3 11.25 3.75
517 257 3 7 11.25 3.75
518 258 3 11 11.25 3.75
519 259 3 15 11.25 3.75
520 260 3 19 11.25 3.75
521 261 1 -18 -11.25 1.25
522 262 1 -14 -11.25 1.25
523 263 1 -10 -11.25 1.25
524 264 1 -6 -11.25 1.25
525 265 1 -2 -11.25 1.25
526 266 1 2 -11.25 1.25
527 267 1 6 -11.25 1.25
528 268 1 10 -11.25 1.25
529 269 1 14 -11.25 1.25
530 270 1 18 -11.25 1.25
531 261 2 -17 -11.25 1.25
532 262 2 -13 -11.25 1.25
533 263 2 -9 -11.25 1.25
534 264 2 -5 -11.25 1.25
535 265 2 -1 -11.25 1.25
536 266 3 3 -11.25 1.25
537 267 3 7 -11.25 1.25
538 268 3 11 -11.25 1.25
539 269 3 15 -11.25 1.25
540 270 3 19 -11.25 1.25
541 271 1 -18 -6.25 -3.75
542 272 1 -14 -6.25 -3.75
543 273 1 -10 -6.25 -3.75
544 274 1 -6 -6.25 -3.75
545 275 1 -2 -6.25 -3.75
546 276 1 2 -6.25 -3.75
547 277 1 6 -6.25 -3.75
548 278 1 10 -6.25 -3.75
549 279 1 14 -6.25 -3.75
550 280 1 18 -6.25 -3.75
551 271 2 -17 -6.25 -3.75
552 272 2 -13 -6.25 -3.75
553 273 2 -9 -6.25 -3.75
554 274 2 -5 -6.25 -3.75
555 275 2 -1 -6.25 -3.75
556 276 3 3 -6.25 -3.75
557 277 3 7 -6.25 -3.75
558 278 3 11 -6.25 -3.75
559 279 3 15 -6.25 -3.75
560 280 3 19 -6.25 -3.75
561 281 1 -18 3.75 -11.25
562 282 1 -14 3.75 -11.25
563 283 1 -10 3.75 -11.25
564 284 1 -6 3.75 -11.25
565 285 1 -2 3.75 -11.25
566 286 1 2 3.75 -11.25
567 287 1 6 3.75 -11.25
568 288 1 10 3.75 -11.25
569 289 1 14 3.75 -11.25
570 290 1 18 3.75 -11.25
571 281 2 -17 3.75 -11.25
572 282 2 -13 3.75 -11.25
573 283 2 -9 3.75 -11.25
574 284 2 -5 3.75 -11.25
575 285 2 -1 3.75 -11.25
576 286 3 3 3.75 -11.25
577 287 3 7 3.75 -11.25
578 288 3 11 3.75 -11.25
579 289 3 15 3.75 -11.25
580 290 3 19 3.75 -11.25
581 291 1 -18 1.25 8.75
582 292 1 -14 1.25 8.75
583 293 1 -10 1.25 8.75
584 294 1 -6 1.25 8.75
585 295 1 -2 1.25 8.75
586 296 1 2 1.25 8.75
587 297 1 6 1.25 8.75
588 298 1 10 1.25 8.75
589 299 1 14 1.25 8.75
590 300 1 18 1.25 8.75
591 291 2 -17 1.25 8.75
592 292 2 -13 1.25 8.75
593 293 2 -9 1.25 8.75
594 294 2 -5 1.25 8.75
595 295 2 -1 1.25 8.75
596 296 3 3 1.25 8.75
597 297 3 7 1.25 8.75
598 298 3 11 1.25 8.75
599 299 3 15 1.25 8.75
600 300 3 19 1.25 8.75
601 301 1 -18 6.25 -3.75
602 302 1 -14 6.25 -3.75
603 303 1 -10 6.25 -3.75
604 304 1 -6 6.25 -3.75
605 305 1 -2 6.25 -3.75
606 306 1 2 6.25 -3.75
607 307 1 6 6.25 -3.75
608 308 1 10 6.25 -3.75
609 309 1 14 6.25 -3.75
610 310 1 18 6.25 -3.75
611 301 2 -17 6.25 -3.75
612 302 2 -13 6.25 -3.75
613 303 2 -9 6.25 -3.75
614 304 2 -5 6.25 -3.75
615 305 2 -1 6.25 -3.75
616 306 3 3 6.25 -3.75
617 307 3 7 6.25 -3.75
618 308 3 11 6.25 -3.75
619 309 3 15 6.25 -3.75
620 310 3 19 6.25 -3.75
621 311 1 -18 11.25 11.25
622 312 1 -14 11.25 11.25
623 313 1 -10 11.25 11.25
624 314 1 -6 11.25 11.25
625 315 1 -2 11.25 11.25
626 316 1 2 11.25 11.25
627 317 1 6 11.25 11.25
628 318 1 10 11.25 11.25
629 319 1 14 11.25 11.25
630 320 1 18 11.25 11.25
631 311 2 -17 11.25 11.25
632 312 2 -13 11.25 11.25
633 313 2 -9 11.25 11.25
634 314 2 -5 11.25 11.25
635 315 2 -1 11.25 11.25
636 316 3 3 11.25 11.25
637 317 3 7 11.25 11.25
638 318 3 11 11.25 11.25
639 319 3 15 11.25 11.25
640 320 3 19 11.25 11.25
641 321 1 -18 6.25 1.25
642 322 1 -14 6.25 1.25
643 323 1 -10 6.25 1.25
644 324 1 -6 6.25 1.25
645 325 1 -2 6.25 1.25
646 326 1 2 6.25 1.25
647 327 1 6 6.25 1.25
648 328 1 10 6.25 1.25
649 329 1 14 6.25 1.25
650 330 1 18 6.25 1.25
651 321 2 -17 6.25 1.25
652 322 2 -13 6.25 1.25
653 323 2 -9 6.25 1.25
654 324 2 -5 6.25 1.25
655 325 2 -1 6.25 1.25
656 326 3 3 6.25 1.25
657 327 3 7 6.25 1.25
658 328 3 11 6.25 1.25
659 329 3 15 6.25 1.25
660 330 3 19 6.25 1.25
661 331 1 -18 1.25 6.25
662 332 1 -14 1.25 6.25
663 333 1 -10 1.25 6.25
664 334 1 -6 1.25 6.25
665 335 1 -2 1.25 6.25
666 336 1 2 1.25 6.25
667 337 1 6 1.25 6.25
668 338 1 10 1.25 6.25
669 339 1 14 1.25 6.25
670 340 1 18 1.25 6.25
671 331 2 -17 1.25 6.25
672 332 2 -13 1.25 6.25
673 333 2 -9 1.25 6.25
674 334 2 -5 1.25 6.25
675 335 2 -1 1.25 6.25
676 336 3 3 1.25 6.25
677 337 3 7 1.25 6.25
678 338 3 11 1.25 6.25
679 339 3 15 1.25 6.25
680 340 3 19 1.25 6.25
681 341 1 -18 -11.25 8.75
682 342 1 -14 -11.25 8.75
683 343 1 -10 -11.25 8.75
684 344 1 -6 -11.25 8.75
685 345 1 -2 -11.25 8.75
686 346 1 2 -11.25 8.75
687 347 1 6 -11.25 8.75
688 348 1 10 -11.25 8.75
689 349 1 14 -11.25 8.75
690 350 1 18 -11.25 8.75
691 341 2 -17 -11.25 8.75
692 342 2 -13 -11.25 8.75
693 343 2 -9 -11.25 8.75
694 344 2 -5 -11.25 8.75
695 345 2 -1 -11.25 8.75
696 346 3 3 -11.25 8.75
697 347 3 7 -11.25 8.75
698 348 3 11 -11.25 8.75
699 349 3 15 -11.25 8.75
700 350 3 19 -11.25 8.75
701 351 1 -18 8.75 8.75
702 352 1 -14 8.75 8.75
703 353 1 -10 8.75 8.75
704 354 1 -6 8.75 8.75
705 355 1 -2 8.75 8.75
706 356 1 2 8.75 8.75
707 357 1 6 8.75 8.75
708 358 1 10 8.75 8.75
709 359 1 14 8.75 8.75
710 360 1 18 8.75 8.75
711 351 2 -17 8.75 8.75
712 352 2 -13 8.75 8.75
713 353 2 -9 8.75 8.75
714 354 2 -5 8.75 8.75
715 355 2 -1 8.75 8.75
716 356 3 3 8.75 8.75
717 357 3 7 8.75 8.75
718 358 3 11 8.75 8.75
719 359 3 15 8.75 8.75
720 360 3 19 8.75 8.75
721 361 1 -18 -8.75 -1.25
722 362 1 -14 -8.75 -1.25
723 363 1 -10 -8.75 -1.25
724 364 1 -6 -8.75 -1.25
725 365 1 -2 -8.75 -1.25
726 366 1 2 -8.75 -1.25
727 367 1 6 -8.75 -1.25
728 368 1 10 -8.75 -1.25
729 369 1 14 -8.75 -1.25
730 370 1 18 -8.75 -1.25
731 361 2 -17 -8.75 -1.25
732 362 2 -13 -8.75 -1.25
733 363 2 -9 -8.75 -1.25
734 364 2 -5 -8.75 -1.25
735 365 2 -1 -8.75 -1.25
736 366 3 3 -8.75 -1.25
737 367 3 7 -8.75 -1.25
738 368 3 11 -8.75 -1.25
739 369 3 15 -8.75 -1.25
740 370 3 19 -8.75 -1.25
741 371 1 -18 6.25 -6.25
742 372 1 -14 6.25 -6.25
743 373 1 -10 6.25 -6.25
744 374 1 -6 6.25 -6.25
745 375 1 -2 6.25 -6.25
746 376 1 2 6.25 -6.25
747 377 1 6 6.25 -6.25
748 378 1 10 6.25 -6.25
749 379 1 14 6.25 -6.25
750 380 1 18 6.25 -6.25
751 371 2 -17 6.25 -6.25
752 372 2 -13 6.25 -6.25
753 373 2 -9 6.25 -6.25
754 374 2 -5 6.25 -6.25
755 375 2 -1 6.25 -6.25
756 376 3 3 6.25 -6.25
757 377 3 7 6.25 -6.25
758 378 3 11 6.25 -6.25
759 379 3 15 6.25 -6.25
760 380 3 19 6.25 -6.25
761 381 1 -18 3.75 -8.75
762 382 1 -14 3.75 -8.75
763 383 1 -10 3.75 -8.75
764 384 1 -6 3.75 -8.75
765 385 1 -2 3.75 -8.75
766 386 1 2 3.75 -8.75
767 387 1 6 3.75 -8.75
768 388 1 10 3.75 -8.75
769 389 1 14 3.75 -8.75
770 390 1 18 3.75 -8.75
771 381 2 -17 3.75 -8.75
772 382 2 -13 3.75 -8.75
773 383 2 -9 3.75 -8.75
774 384 2 -5 3.75 -8.75
775 385 2 -1 3.75 -8.75
776 386 3 3 3.75 -8.75
777 387 3 7 3.75 -8.75
778 388 3 11 3.75 -8.75
779 389 3 15 3.75 -8.75
780 390 3 19 3.75 -8.75
781 391 1 -18 -11.25 -1.25
782 392 1 -14 -11.25 -1.25
783 393 1 -10 -11.25 -1.25
784 394 1 -6 -11.25 -1.25
785 395 1 -2 -11.25 -1.25
786 396 1 2 -11.25 -1.25
787 397 1 6 -11.25 -1.25
788 398 1 10 -11.25 -1.25
789 399 1 14 -11.25 -1.25
790 400 1 18 -11.25 -1.25
791 391 2 -17 -11.25 -1.25
792 392 2 -13 -11.25 -1.25
793 393 2 -9 -11.25 -1.25
794 394 2 -5 -11.25 -1.25
795 395 2 -1 -11.25 -1.25
796 396 3 3 -11.25 -1.25
797 397 3 7 -11.25 -1.25
798 398 3 11 -11.25 -1.25
799 399 3 15 -11.25 -1.25
800 400 3 19 -11.25 -1.25
801 401 1 -18 3.75 -1.25
802 402 1 -14 3.75 -1.25
803 403 1 -10 3.75 -1.25
804 404 1 -6 3.75 -1.25
805 405 1 -2 3.75 -1.25
806 406 1 2 3.75 -1.25
807 407 1 6 3.75 -1.25
808 408 1 10 3.75 -1.25
809 409 1 14 3.75 -1.25
810 410 1 18 3.75 -1.25
811 401 2 -17 3.75 -1.25
812 402 2 -13 3.75 -1.25
813 403 2 -9 3.75 -1.25
814 404 2 -5 3.75 -1.25
815 405 2 -1 3.75 -1.25
816 406 3 3 3.75 -1.25
817 407 3 7 3.75 -1.25
818 408 3 11 3.75 -1.25
819 409 3 15 3.75 -1.25
820 410 3 19 3.75 -1.25
821 411 1 -18 6.25 11.25
822 412 1 -14 6.25 11.25
823 413 1 -10 6.25 11.25
824 414 1 -6 6.25 11.25
825 415 1 -2 6.25 11.25
826 416 1 2 6.25 11.25
827 417 1 6 6.25 11.25
828 418 1 10 6.25 11.25
829 419 1 14 6.25 11.25
830 420 1 18 6.25 11.25
831 411 2 -17 6.25 11.25
832 412 2 -13 6.25 11.25
833 413 2 -9 6.25 11.25
834 414 2 -5 6.25 11.25
835 415 2 -1 6.25 11.25
836 416 3 3 6.25 11.25
837 417 3 7 6.25 11.25
838 418 3 11 6.25 11.25
839 419 3 15 6.25 11.25
840 420 3 19 6.25 11.25
841 421 1 -18 11.25 6.25
842 422 1 -14 11.25 6.25
843 423 1 -10 11.25 6.25
844 424 1 -6 11.25 6.25
845 425 1 -2 11.25 6.25
846 426 1 2 11.25 6.25
847 427 1 6 11.25 6.25
848 428 1 10 11.25 6.25
849 429 1 14 11.25 6.25
850 430 1 18 11.25 6.25
851 421 2 -17 11.25 6.25
852 422 2 -13 11.25 6.25
853 423 2 -9 11.25 6.25
854 424 2 -5 11.25 6.25
855 425 2 -1 11.25 6.25
856 426 3 3 11.25 6.25
857 427 3 7 11.25 6.25
858 428 3 11 11.25 6.25
859 429 3 15 11.25 6.25
860 430 3 19 11.25 6.25
861 431 1 -18 -3.75 -8.75
862 432 1 -14 -3.75 -8.75
863 433 1 -10 -3.75 -8.75
864 434 1 -6 -3.75 -8.75
865 435 1 -2 -3.75 -8.75
866 436 1 2 -3.75 -8.75
867 437 1 6 -3.75 -8.75
868 438 1 10 -3.75 -8.75
869 439 1 14 -3.75 -8.75
870 440 1 18 -3.75 -8.75
871 431 2 -17 -3.75 -8.75
872 432 2 -13 -3.75 -8.75
873 433 2 -9 -3.75 -8.75
874 434 2 -5 -3.75 -8.75
875 435 2 -1 -3.75 -8.75
876 436 3 3 -3.75 -8.75
877 437 3 7 -3.75 -8.75
878 438 3 11 -3.75 -8.75
879 439 3 15 -3.75 -8.75
880 440 3 19 -3.75 -8.75
881 441 1 -18 1.25 -1.25
882 442 1 -14 1.25 -1.25
883 443 1 -10 1.25 -1.25
884 444 1 -6 1.25 -1.25
885 445 1 -2 1.25 -1.25
886 446 1 2 1.25 -1.25
887 447 1 6 1.25 -1.25
888 448 1 10 1.25 -1.25
889 449 1 14 1.25 -1.25
890 450 1 18 1.25 -1.25
891 441 2 -17 1.25 -1.25
892 442 2 -13 1.25 -1.25
893 443 2 -9 1.25 -1.25
894 444 2 -5 1.25 -1.25
895 445 2 -1 1.25 -1.25
896 446 3 3 1.25 -1.25
897 447 3 7 1.25 -1.25
898 448 3 11 1.25 -1.25
899 449 3 15 1.25 -1.25
900 450 3 19 1.25 -1.25
901 451 1 -18 1.25 1.25
902 452 1 -14 1.25 1.25
903 453 1 -10 1.25 1.25
904 454 1 -6 1.25 1.25
905 455 1 -2 1.25 1.25
906 456 1 2 1.25 1.25
907 457 1 6 1.25 1.25
908 458 1 10 1.25 1.25
909 459 1 14 1.25 1.25
910 460 1 18 1.25 1.25
911 451 2 -17 1.25 1.25
912 452 2 -13 1.25 1.25
913 453 2 -9 1.25 1.25
914 454 2 -5 1.25 1.25
915 455 2 -1 1.25 1.25
916 456 3 3 1.25 1.25
917 457 3 7 1.25 1.25
918 458 3 11 1.25 1.25
919 459 3 15 1.25 1.25
920 460 3 19 1.25 1.25
921 461 1 -18 -6.25 3.75
922 462 1 -14 -6.25 3.75
923 463 1 -10 -6.25 3.75
924 464 1 -6 -6.25 3.75
925 465 1 -2 -6.25 3.75
926 466 1 2 -6.25 3.75
927 467 1 6 -6.25 3.75
928 468 1 10 -6.25 3.75
929 469 1 14 -6.25 3.75
930 470 1 18 -6.25 3.75
931 461 2 -17 -6.25 3.75
932 462 2 -13 -6.25 3.75
933 463 2 -9 -6.25 3.75
934 464 2 -5 -6.25 3.75
935 465 2 -1 -6.25 3.75
936 466 3 3 -6.25 3.75
937 467 3 7 -6.25 3.75
938 468 3 11 -6.25 3.75
939 469 3 15 -6.25 3.75
940 470 3 19 -6.25 3.75
941 471 1 -18 -6.25 11.25
942 472 1 -14 -6.25 11.25
943 473 1 -10 -6.25 11.25
944 474 1 -6 -6.25 11.25
945 475 1 -2 -6.25 11.25
946 476 1 2 -6.25 11.25
947 477 1 6 -6.25 11.25
948 478 1 10 -6.25 11.25
949 479 1 14 -6.25 11.25
950 480 1 18 -6.25 11.25
951 471 2 -17 -6.25 11.25
952 472 2 -13 -6.25 11.25
953 473 2 -9 -6.25 11.25
954 474 2 -5 -6.25 11.25
955 475 2 -1 -6.25 11.25
956 476 3 3 -6.25 11.25
957 477 3 7 -6.25 11.25
958 478 3 11 -6.25 11.25
959 479 3 15 -6.25 11.25
960 480 3 19 -6.25 11.25
961 481 1 -18 6.25 -11.25
962 482 1 -14 6.25 -11.25
963 483 1 -10 6.25 -11.25
964 484 1 -6 6.25 -11.25
965 485 1 -2 6.25 -11.25
966 486 1 2 6.25 -11.25
967 487 1 6 6.25 -11.25
968 488 1 10 6.25 -11.25
969 489 1 14 6.25 -11.25
970 490 1 18 6.25 -11.25
971 481 2 -17 6.25 -11.25
972 482 2 -13 6.25 -11.25
973 483 2 -9 6.25 -11.25
974 484 2 -5 6.25 -11.25
975 485 2 -1 6.25 -11.25
976 486 3 3 6.25 -11.25
977 487 3 7 6.25 -11.25
978 488 3 11 6.25 -11.25
979 489 3 15 6.25 -11.25
980 490 3 19 6.25 -11.25
981 491 1 -18 3.75 3.75
982 492 1 -14 3.75 3.75
983 493 1 -10 3.75 3.75
984 494 1 -6 3.75 3.75
985 495 1 -2 3.75 3.75
986 496 1 2 3.75 3.75
987 497 1 6 3.75 3.75
988 498 1 10 3.75 3.75
989 499 1 14 3.75 3.75
990 500 1 18 3.75 3.75
991 491 2 -17 3.75 3.75
992 492 2 -13 3.75 3.75
993 493 2 -9 3.75 3.75
994 494 2 -5 3.75 3.75
995 495 2 -1 3.75 3.75
996 496 3 3 3.75 3.75
997 497 3 7 3.75 3.75
998 498 3 11 3.75 3.75
999 499 3 15 3.75 3.75
1000 500 3 19 3.75 3.75
1001 0 4 47.5 1 -2
1002 0 4 35.5 10 -5
1003 0 4 -42.5 7 -11
1004 0 4 35.5 -2 -5
1005 0 4 -48.5 -2 7
1006 0 4 41.5 -5 10
1007 0 4 -39.5 10 4
1008 0 4 -48.5 4 4
1009 0 4 29.5 -8 -11
1010 0 4 41.5 -11 -8
1011 0 4 -42.5 7 1
1012 0 4 -27.5 -8 10
1013 0 4 26.5 10 -2
1014 0 4 38.5 7 7
1015 0 4 -36.5 -2 10
1016 0 4 -36.5 10 -5
1017 0 4 -27.5 10 7
1018 0 4 -45.5 1 10
1019 0 4 32.5 7 1
1020 0 4 26.5 -8 -8
1021 0 4 -45.5 10 -8
1022 0 4 -30.5 -5 10
1023 0 4 -30.5 1 -8
1024 0 4 29.5 10 1
1025 0 4 -39.5 7 1
1026 0 4 -48.5 1 -5
1027 0 4 -30.5 -2 -5
1028 0 4 38.5 10 -5
1029 0 4 35.5 -2 7
1030 0 4 44.5 10 4
1031 0 4 -36.5 -11 -8
1032 0 4 26.5 -2 10
1033 0 4 29.5 -5 -8
1034 0 4 -33.5 -11 1
1035 0 4 41.5 7 10
1036 0 4 29.5 -5 -11
1037 0 4 -27.5 1 -2
1038 0 4 -39.5 4 10
1039 0 4 -42.5 -8 4
1040 0 4 -36.5 -11 4
1041 0 4 -36.5 -8 1
1042 0 4 -30.5 -2 -11
1043 0 4 -30.5 10 4
1044 0 4 26.5 -8 1
1045 0 4 44.5 -5 -8
1046 0 4 -48.5 -2 4
1047 0 4 35.5 1 1
1048 0 4 44.5 -2 -2
1049 0 4 41.5 7 1
1050 0 4 47.5 1 4

Velocities

1 0 0 0
2 0 0 0
3 0 0 0
4 0 0 0
5 0 0 0
6 0 0 0
7 0 0 0
8 0 0 0
9 0 0 0
10 0 0 0
11 0 0 0
12 0 0 0
13 0 0 0
14 0 0 0
15 0 0 0
16 0 0 0
17 0 0 0
18 0 0 0
19 0 0 0
20 0 0 0
21 0 0 0
22 0 0 0
23 0 0 0
24 0 0 0
25 0 0 0
26 0 0 0
27 0 0 0
28 0 0 0
29 0 0 0
30 0 0 0
31 0 0 0
32 0 0 0
33 0 0 0
34 0 0 0
35 0 0 0
36 0 0 0
37 0 0 0
38 0 0 0
39 0 0 0
40 0 0 0
41 0 0 0
42 0 0 0
43 0 0 0
44 0 0 0
45 0 0 0
46 0 0 0
47 0 0 0
48 0 0 0
49 0 0 0
50 0 0 0
51 0 0 0
52 0 0 0
53 0 0 0
54 0 0 0
55 0 0 0
56 0 0 0
57 0 0 0
58 0 0 0
59 0 0 0
60 0 0 0
61 0 0 0
62 0 0 0
63 0 0 0
64 0 0 0
65 0 0 0
66 0 0 0
67 0 0 0
68 0 0 0
69 0 0 0
70 0 0 0
71 0 0 0
72 0 0 0
73 0 0 0
74 0 0 0
75 0 0 0
76 0 0 0
77 0 0 0
78 0 0 0
79 0 0 0
80 0 0 0
81 0 0 0
82 0 0 0
83 0 0 0
84 0 0 0
85 0 0 0
86 0 0 0
87 0 0 0
88 0 0 0
89 0 0 0
90 0 0 0
91 0 0 0
92 0 0 0
93 0 0 0
94 0 0 0
95 0 0 0
96 0 0 0
97 0 0 0
98 0 0 0
99 0 0 0
100 0 0 0
101 0 0 0
102 0 0 0
103 0 0 0
104 0 0 0
105 0 0 0
106 0 0 0
107 0 0 0
108 0 0 0
109 0 0 0
110 0 0 0
111 0 0 0
112 0 0 0
113 0 0 0
114 0 0 0
115 0 0 0
116 0 0 0
117 0 0 0
118 0 0 0
119 0 0 0
120 0 0 0
121 0 0 0
122 0 0 0
123 0 0 0
124 0 0 0
125 0 0 0
126 0 0 0
127 0 0 0
128 0 0 0
129 0 0 0
130 0 0 0
131 0 0 0
132 0 0 0
133 0 0 0
134 0 0 0
135 0 0 0
136 0 0 0
137 0 0 0
138 0 0 0
139 0 0 0
140 0 0 0
141 0 0 0
142 0 0 0
143 0 0 0
144 0 0 0
145 0 0 0
146 0 0 0
147 0 0 0
148 0 0 0
149 0 0 0
150 0 0 0
151 0 0 0
152 0 0 0
153 0 0 0
154 0 0 0
155 0 0 0
156 0 0 0
157 0 0 0
158 0 0 0
159 0 0 0
160 0 0 0
161 0 0 0
162 0 0 0
163 0 0 0
164 0 0 0
165 0 0 0
166 0 0 0
167 0 0 0
168 0 0 0
169 0 0 0
170 0 0 0
171 0 0 0
172 0 0 0
173 0 0 0
174 0 0 0
175 0 0 0
176 0 0 0
177 0 0 0
178 0 0 0
179 0 0 0
180 0 0 0
181 0 0 0
182 0 0 0
183 0 0 0
184 0 0 0
185 0 0 0
186 0 0 0
187 0 0 0
188 0 0 0
189 0 0 0
190 0 0 0
191 0 0 0
192 0 0 0
193 0 0 0
194 0 0 0
195 0 0 0
196 0 0 0
197 0 0 0
198 0 0 0
199 0 0 0
200 0 0 0
201 0 0 0
202 0 0 0
203 0 0 0
204 0 0 0
205 0 0 0
206 0 0 0
207 0 0 0
208 0 0 0
209 0 0 0
210 0 0 0
211 0 0 0
212 0 0 0
213 0 0 0
214 0 0 0
215 0 0 0
216 0 0 0
217 0 0 0
218 0 0 0
219 0 0 0
220 0 0 0
221 0 0 0
222 0 0 0
223 0 0 0
224 0 0 0
225 0 0 0
226 0 0 0
227 0 0 0
228 0 0 0
229 0 0 0
230 0 0 0
231 0 0 0
232 0 0 0
233 0 0 0
234 0 0 0
235 0 0 0
236 0 0 0
237 0 0 0
238 0 0 0
239 0 0 0
240 0 0 0
241 0 0 0
242 0 0 0
243 0 0 0
244 0 0 0
245 0 0 0
246 0 0 0
247 0 0 0
248 0 0 0
249 0 0 0
250 0 0 0
251 0 0 0
252 0 0 0
253 0 0 0
254 0 0 0
255 0 0 0
256 0 0 0
257 0 0 0
258 0 0 0
259 0 0 0
260 0 0 0
261 0 0 0
262 0 0 0
263 0 0 0
264 0 0 0
265 0 0 0
266 0 0 0
267 0 0 0
268 0 0 0
269 0 0 0
270 0 0 0
271 0 0 0
272 0 0 0
273 0 0 0
274 0 0 0
275 0 0 0
276 0 0 0
277 0 0 0
278 0 0 0
279 0 0 0
280 0 0 0
281 0 0 0
282 0 0 0
283 0 0 0
284 0 0 0
285 0 0 0
286 0 0 0
287 0 0 0
288 0 0 0
289 0 0 0
290 0 0 0
291 0 0 0
292 0 0 0
293 0 0 0
294 0 0 0
295 0 0 0
296 0 0 0
297 0 0 0
298 0 0 0
299 0 0 0
300 0 0 0
301 0 0 0
302 0 0 0
303 0 0 0
304 0 0 0
305 0 0 0
306 0 0 0
307 0 0 0
308 0 0 0
309 0 0 0
310 0 0 0
311 0 0 0
312 0 0 0
313 0 0 0
314 0 0 0
315 0 0 0
316 0 0 0
317 0 0 0
318 0 0 0
319 0 0 0
320 0 0 0
321 0 0 0
322 0 0 0
323 0 0 0
324 0 0 0
325 0 0 0
326 0 0 0
327 0 0 0
328 0 0 0
329 0 0 0
330 0 0 0
331 0 0 0
332 0 0 0
333 0 0 0
334 0 0 0
335 0 0 0
336 0 0 0
337 0 0 0
338 0 0 0
339 0 0 0
340 0 0 0
341 0 0 0
342 0 0 0
343 0 0 0
344 0 0 0
345 0 0 0
346 0 0 0
347 0 0 0
348 0 0 0
349 0 0 0
350 0 0 0
351 0 0 0
352 0 0 0
353 0 0 0
354 0 0 0
355 0 0 0
356 0 0 0
357 0 0 0
358 0 0 0
359 0 0 0
360 0 0 0
361 0 0 0
362 0 0 0
363 0 0 0
364 0 0 0
365 0 0 0
366 0 0 0
367 0 0 0
368 0 0 0
369 0 0 0
370 0 0 0
371 0 0 0
372 0 0 0
373 0 0 0
374 0 0 0
375 0 0 0
376 0 0 0
377 0 0 0
378 0 0 0
379 0 0 0
380 0 0 0
381 0 0 0
382 0 0 0
383 0 0 0
384 0 0 0
385 0 0 0
386 0 0 0
387 0 0 0
388 0 0 0
389 0 0 0
390 0 0 0
391 0 0 0
392 0 0 0
393 0 0 0
394 0 0 0
395 0 0 0
396 0 0 0
397 0 0 0
398 0 0 0
399 0 0 0
400 0 0 0
401 0 0 0
402 0 0 0
403 0 0 0
404 0 0 0
405 0 0 0
406 0 0 0
407 0 0 0
408 0 0 0
409 0 0 0
410 0 0 0
411 0 0 0
412 0 0 0
413 0 0 0
414 0 0 0
415 0 0 0
416 0 0 0
417 0 0 0
418 0 0 0
419 0 0 0
420 0 0 0
421 0 0 0
422 0 0 0
423 0 0 0
424 0 0 0
425 0 0 0
426 0 0 0
427 0 0 0
428 0 0 0
429 0 0 0
430 0 0 0
431 0 0 0
432 0 0 0
433 0 0 0
434 0 0 0
435 0 0 0
436 0 0 0
437 0 0 0
438 0 0 0
439 0 0 0
440 0 0 0
441 0 0 0
442 0 0 0
443 0 0 0
444 0 0 0
445 0 0 0
446 0 0 0
447 0 0 0
448 0 0 0
449 0 0 0
450 0 0 0
451 0 0 0
452 0 0 0
453 0 0 0
454 0 0 0
455 0 0 0
456 0 0 0
457 0 0 0
458 0 0 0
459 0 0 0
460 0 0 0
461 0 0 0
462 0 0 0
463 0 0 0
464 0 0 0
465 0 0 0
466 0 0 0
467 0 0 0
468 0 0 0
469 0 0 0
470 0 0 0
471 0 0 0
472 0 0 0
473 0 0 0
474 0 0 0
475 0 0 0