LAMMPS data file for polymer system

27000 atoms
26940 bonds

1 atom types
1 bond types

0.0 40.688818183822356 xlo xhi
0.0 40.688818183822356 ylo yhi
0.0 40.688818183822356 zlo zhi

Masses

1 5.65487

Atoms

1 1 1 24.585302 36.593713 38.125746
2 1 1 24.363617 36.295834 38.206515
3 1 1 24.161200 36.062916 38.428273
4 1 1 24.195910 35.776624 38.675725
5 1 1 24.442538 35.711673 38.957426
6 1 1 24.714901 35.448050 38.930556
7 1 1 24.622198 35.157181 38.704279
8 1 1 24.553830 34.783526 38.714669
9 1 1 24.397370 34.634024 38.402309
10 1 1 24.373059 34.329721 38.176015
11 1 1 24.069198 34.130361 38.287028
12 1 1 23.890685 33.820204 38.159215
13 1 1 23.593081 33.740238 38.381560
14 1 1 23.371684 33.516262 38.594205
15 1 1 23.037597 33.546926 38.772658
16 1 1 22.668913 33.625513 38.820581
17 1 1 22.508304 33.835794 39.093320
18 1 1 22.471765 34.213163 39.067686
19 1 1 22.674845 34.532227 39.030849
20 1 1 22.959481 34.577584 38.783210
21 1 1 23.325615 34.639534 38.863880
22 1 1 23.546148 34.779718 38.587992
23 1 1 23.606983 35.024063 38.303396
24 1 1 23.455233 35.371429 38.330017
25 1 1 23.079589 35.420671 38.300579
26 1 1 22.821373 35.589818 38.522196
27 1 1 22.524854 35.397609 38.661953
28 1 1 22.494361 35.024945 38.594194
29 1 1 22.515840 34.972194 38.218486
30 1 1 22.617432 34.989350 37.852720
31 1 1 22.417298 35.126566 37.560286
32 1 1 22.152459 35.214170 37.302243
33 1 1 22.221280 35.145855 36.934824
34 1 1 22.262328 35.275439 36.579967
35 1 1 22.186767 35.352796 36.215678
36 1 1 22.407509 35.583688 36.009858
37 1 1 22.297607 35.673517 35.657364
38 1 1 22.228076 35.607631 35.289635
39 1 1 22.185432 35.236493 35.220075
40 1 1 21.894502 35.113512 35.431346
41 1 1 21.992501 34.872452 35.708269
42 1 1 21.813300 34.762530 36.024820
43 1 1 21.725744 34.652806 36.377941
44 1 1 21.876260 34.313263 36.458287
45 1 1 21.897883 33.953388 36.338196
46 1 1 21.745427 33.798564 36.026448
47 1 1 21.584622 33.458213 36.078438
48 1 1 21.632914 33.160048 35.847861
49 1 1 21.480754 32.822886 35.934861
50 1 1 21.442513 32.448170 35.884604
51 1 1 21.089552 32.334741 35.801220
52 1 1 20.723017 32.433485 35.818588
53 1 1 20.536259 32.428250 35.487689
54 1 1 20.493834 32.584816 35.144051
55 1 1 20.380824 32.690618 34.797014
56 1 1 20.211805 32.821436 34.482817
57 1 1 20.066592 32.974990 34.167010
58 1 1 19.721962 32.901222 34.024926
59 1 1 19.574676 32.762638 33.703210
60 1 1 19.216921 32.647108 33.758561
61 1 1 18.877793 32.547787 33.898304
62 1 1 18.865638 32.464549 34.268876
63 1 1 18.883456 32.093092 34.346993
64 1 1 18.784980 31.768592 34.518463
65 1 1 18.913159 31.619699 34.843734
66 1 1 19.118198 31.486828 35.134773
67 1 1 19.239615 31.132554 35.070372
68 1 1 19.100795 30.783977 35.130565
69 1 1 19.209301 30.421038 35.160602
70 1 1 18.950008 30.143325 35.167101
71 1 1 18.737502 29.894832 34.973470
72 1 1 18.390543 29.757962 35.046175
73 1 1 18.113723 29.938389 34.858512
74 1 1 17.819153 30.163247 34.774444
75 1 1 17.886263 30.455031 34.540440
76 1 1 18.074194 30.483024 34.211353
77 1 1 18.409967 30.469407 34.033952
78 1 1 18.524310 30.342244 33.694607
79 1 1 18.240109 30.312995 33.444060
80 1 1 17.963108 30.552487 33.545619
81 1 1 17.723139 30.586160 33.252905
82 1 1 17.641241 30.956776 33.234572
83 1 1 17.893820 31.195358 33.080680
84 1 1 17.933568 31.219478 32.703535
85 1 1 17.721795 31.177080 32.390877
86 1 1 17.393511 31.139292 32.203255
87 1 1 17.425446 31.037211 31.838619
88 1 1 17.747064 30.869679 31.725062
89 1 1 17.999096 30.879150 31.440826
90 1 1 18.201251 30.816840 31.125150
91 1 1 18.556263 30.704557 31.049261
92 1 1 18.815948 30.627534 30.782745
93 1 1 19.073618 30.815265 30.575952
94 1 1 19.171816 30.861001 30.211719
95 1 1 19.405405 30.959903 29.928781
96 1 1 19.439956 30.850196 29.566606
97 1 1 19.434464 30.535038 29.354367
98 1 1 19.433688 30.193683 29.521330
99 1 1 19.338964 30.024257 29.848013
100 1 1 19.064109 29.809883 29.999335
101 1 1 18.731213 29.914381 29.848800
102 1 1 18.580029 30.218394 30.019443
103 1 1 18.491134 30.472973 30.287188
104 1 1 18.471960 30.803307 30.100341
105 1 1 18.204820 31.009449 30.275104
106 1 1 18.019438 31.318509 30.395583
107 1 1 18.043816 31.696993 30.372011
108 1 1 17.787871 31.875830 30.588597
109 1 1 17.896307 31.808551 30.946529
110 1 1 18.176648 31.582896 31.068547
111 1 1 18.458212 31.448051 30.851894
112 1 1 18.734371 31.679104 30.730441
113 1 1 18.672246 31.938468 30.459754
114 1 1 18.595316 31.871108 30.093770
115 1 1 18.326585 32.109672 29.970196
116 1 1 18.175796 32.455751 29.926695
117 1 1 18.117557 32.670800 29.618861
118 1 1 17.995601 32.540139 29.283519
119 1 1 17.938195 32.188763 29.150707
120 1 1 17.595774 32.028714 29.111564
121 1 1 17.448966 31.869238 29.423678
122 1 1 17.653627 31.618551 29.622850
123 1 1 18.023336 31.574807 29.699018
124 1 1 18.187655 31.232215 29.704478
125 1 1 18.510863 31.105057 29.550311
126 1 1 18.789012 31.357128 29.491200
127 1 1 18.821370 31.415938 29.117176
128 1 1 18.559358 31.660589 28.991098
129 1 1 18.590748 31.768894 28.628214
130 1 1 18.882950 31.996690 28.543792
131 1 1 19.134787 32.184532 28.330032
132 1 1 19.325023 31.923838 28.129411
133 1 1 19.155484 31.774548 27.823847
134 1 1 18.976881 31.445111 27.760822
135 1 1 19.214427 31.149581 27.735639
136 1 1 19.221439 30.769732 27.727523
137 1 1 19.152651 30.626420 27.382371
138 1 1 19.115566 30.252710 27.440387
139 1 1 18.819745 30.017160 27.477894
140 1 1 18.669974 29.689120 27.358070
141 1 1 18.297492 29.615541 27.373680
142 1 1 17.939132 29.537180 27.472863
143 1 1 17.866894 29.257672 27.719960
144 1 1 17.602918 28.991498 27.782157
145 1 1 17.464490 28.699240 27.981714
146 1 1 17.124705 28.614644 28.129326
147 1 1 16.750153 28.550640 28.125528
148 1 1 16.612917 28.199816 28.175412
149 1 1 16.489699 27.990736 27.883003
150 1 1 16.150034 27.998553 27.712808
151 1 1 15.939214 28.245023 27.514799
152 1 1 15.792885 28.566739 27.654393
153 1 1 15.654494 28.890511 27.511495
154 1 1 15.519965 29.221988 27.639656
155 1 1 15.407862 29.436654 27.346822
156 1 1 15.087040 29.508735 27.156356
157 1 1 14.868432 29.817382 27.193064
158 1 1 14.978334 30.164787 27.085214
159 1 1 15.084379 30.518157 26.994199
160 1 1 14.820182 30.634885 26.747268
161 1 1 14.677627 30.715323 26.404328
162 1 1 14.461034 30.869064 26.132573
163 1 1 14.608579 31.077686 25.851312
164 1 1 14.441445 31.418417 25.832107
165 1 1 14.122283 31.569425 25.691635
166 1 1 13.946965 31.296442 25.493787
167 1 1 13.792540 31.130274 25.188925
168 1 1 14.070169 30.942387 25.009982
169 1 1 14.208752 30.988583 24.659182
170 1 1 14.269525 31.087694 24.297403
171 1 1 13.956779 31.264492 24.173578
172 1 1 13.773413 31.459632 24.443202
173 1 1 13.668585 31.824171 24.420345
174 1 1 13.940826 32.068135 24.524105
175 1 1 13.931798 32.394047 24.719297
176 1 1 13.923161 32.354620 25.097147
177 1 1 14.048002 32.313517 25.453693
178 1 1 13.815315 32.351883 25.751661
179 1 1 13.465613 32.263113 25.632380
180 1 1 13.261285 31.947634 25.576494
181 1 1 13.270682 31.698453 25.863236
182 1 1 13.253984 31.464727 26.162390
183 1 1 12.961257 31.336943 26.368258
184 1 1 12.822743 30.999696 26.475398
185 1 1 12.544227 31.006369 26.733825
186 1 1 12.407630 30.852223 27.053168
187 1 1 12.410184 30.507218 27.212432
188 1 1 12.769536 30.456503 27.325102
189 1 1 13.015709 30.364148 27.599454
190 1 1 12.876390 30.168152 27.893692
191 1 1 12.609638 30.224256 28.158448
192 1 1 12.531133 30.355044 28.506488
193 1 1 12.332883 30.574794 28.744830
194 1 1 11.960852 30.643887 28.779749
195 1 1 11.848338 30.915843 28.539374
196 1 1 11.740416 31.237669 28.710199
197 1 1 11.450369 31.244533 28.955608
198 1 1 11.308643 31.244139 29.308189
199 1 1 11.116372 31.201466 29.633168
200 1 1 10.746783 31.133519 29.689623
201 1 1 10.389476 31.248340 29.749185
202 1 1 10.398199 31.502330 30.031697
203 1 1 10.763088 31.585177 30.097977
204 1 1 11.001149 31.847144 30.236180
205 1 1 11.235299 32.143705 30.276495
206 1 1 11.478173 32.313446 30.514403
207 1 1 11.535823 32.625551 30.723370
208 1 1 11.647265 32.908728 30.950946
209 1 1 11.994370 32.953027 31.099121
210 1 1 12.073547 32.951279 31.470776
211 1 1 12.192605 32.639624 31.652701
212 1 1 12.197691 32.296082 31.490365
213 1 1 12.057929 32.217507 31.145847
214 1 1 12.087688 31.980929 30.849966
215 1 1 12.078664 31.719753 30.574095
216 1 1 12.310505 31.644954 30.282453
217 1 1 12.612320 31.728177 30.067089
218 1 1 12.873485 31.473703 29.960151
219 1 1 13.205175 31.630689 30.058828
220 1 1 13.502091 31.502102 29.859563
221 1 1 13.735504 31.409316 29.574415
222 1 1 13.919989 31.393490 29.242580
223 1 1 14.241791 31.595122 29.228875
224 1 1 14.218897 31.840225 29.518358
225 1 1 14.256557 31.930438 29.885568
226 1 1 14.401513 32.144673 30.163940
227 1 1 14.540626 32.497436 30.188560
228 1 1 14.823198 32.723629 30.072845
229 1 1 14.803001 32.966703 29.781456
230 1 1 14.657020 33.194897 29.514966
231 1 1 14.562766 33.562890 29.524828
232 1 1 14.483342 33.844997 29.766711
233 1 1 14.758798 33.839836 30.028430
234 1 1 15.119952 33.733280 30.079559
235 1 1 15.330264 33.447840 30.216280
236 1 1 15.553282 33.250186 29.980492
237 1 1 15.886894 33.074006 29.935064
238 1 1 16.212718 32.936436 29.796093
239 1 1 16.326673 33.085999 29.465873
240 1 1 16.201849 33.144988 29.111840
241 1 1 16.364889 33.450275 28.954939
242 1 1 16.491689 33.501101 28.600343
243 1 1 16.849760 33.450084 28.483798
244 1 1 17.118660 33.681519 28.619926
245 1 1 17.081111 34.013394 28.438682
246 1 1 17.145908 34.060233 28.067189
247 1 1 17.163049 34.245837 27.736044
248 1 1 17.197413 34.107095 27.383951
249 1 1 17.272826 33.819273 27.147579
250 1 1 17.355712 33.448798 27.130902
251 1 1 17.696339 33.280590 27.139845
252 1 1 18.022528 33.323949 27.329899
253 1 1 18.068672 33.456372 27.683077
254 1 1 17.830699 33.565422 27.958535
255 1 1 17.886864 33.804268 28.248705
256 1 1 17.881505 34.051531 28.537205
257 1 1 17.767242 33.933407 28.879828
258 1 1 17.774686 33.979906 29.256899
259 1 1 17.812762 33.667951 29.470521
260 1 1 17.867014 33.339575 29.287148
261 1 1 17.530028 33.173440 29.230236
262 1 1 17.196549 33.046835 29.099226
263 1 1 16.990441 32.728499 29.075110
264 1 1 16.796197 32.508144 29.316176
265 1 1 16.911360 32.200481 29.507175
266 1 1 16.833344 31.855188 29.645330
267 1 1 16.801664 31.677000 29.979464
268 1 1 17.139634 31.613734 30.141247
269 1 1 17.325441 31.363550 30.358695
270 1 1 17.447288 31.054423 30.543069
271 1 1 17.610235 30.821932 30.290490
272 1 1 17.588957 30.454534 30.195801
273 1 1 17.476586 30.112903 30.073078
274 1 1 17.564651 29.749014 30.138111
275 1 1 17.373260 29.468319 29.967876
276 1 1 17.013027 29.490906 30.086712
277 1 1 17.005689 29.704035 30.401231
278 1 1 16.812306 29.767621 30.722105
279 1 1 16.727654 30.009531 31.002664
280 1 1 16.864318 30.364101 31.004413
281 1 1 17.067969 30.649654 31.150652
282 1 1 17.376638 30.515734 31.327256
283 1 1 17.408594 30.311193 31.645913
284 1 1 17.097120 30.113648 31.737344
285 1 1 17.011991 30.122865 32.107571
286 1 1 17.125255 30.170665 32.467135
287 1 1 17.182644 29.912910 32.740392
288 1 1 17.078908 29.847463 33.100052
289 1 1 17.288006 30.068684 33.327515
290 1 1 17.057027 30.230549 33.582169
291 1 1 17.133523 30.572569 33.729037
292 1 1 17.135748 30.811591 34.024441
293 1 1 17.456664 30.813983 34.227928
294 1 1 17.581427 31.015980 34.524629
295 1 1 17.879529 31.036692 34.759377
296 1 1 18.224082 31.186252 34.701802
297 1 1 18.500267 30.925278 34.698048
298 1 1 18.686066 30.594278 34.715872
299 1 1 18.878487 30.367069 34.479757
300 1 1 19.152275 30.104798 34.454173
301 1 1 19.486186 29.944923 34.368479
302 1 1 19.777493 29.878989 34.133548
303 1 1 20.106384 29.830248 34.317545
304 1 1 20.406712 29.984977 34.143584
305 1 1 20.565359 30.055862 33.805640
306 1 1 20.853869 29.886762 33.625175
307 1 1 21.090106 29.603514 33.533729
308 1 1 21.223063 29.292492 33.706899
309 1 1 21.529876 29.227714 33.921538
310 1 1 21.760380 29.529804 33.924586
311 1 1 22.000445 29.791429 33.789229
312 1 1 22.266922 29.868587 34.048915
313 1 1 22.325541 29.765090 34.409819
314 1 1 22.477848 29.521377 34.658429
315 1 1 22.699340 29.682253 34.921982
316 1 1 22.980941 29.432385 34.973624
317 1 1 23.351713 29.444006 35.056043
318 1 1 23.541636 29.530940 34.738598
319 1 1 23.761868 29.795876 34.578264
320 1 1 23.650658 30.013232 34.287079
321 1 1 23.418388 30.210598 34.060149
322 1 1 23.257713 30.473684 33.837957
323 1 1 23.043081 30.787107 33.847912
324 1 1 23.044968 31.046450 33.570176
325 1 1 23.332229 31.294112 33.593511
326 1 1 23.252414 31.660918 33.534494
327 1 1 23.020932 31.962068 33.523319
328 1 1 22.851084 32.294111 33.596114
329 1 1 22.888923 32.574104 33.342004
330 1 1 23.101595 32.887112 33.307412
331 1 1 23.129671 33.145992 33.584166
332 1 1 22.965326 33.486644 33.620871
333 1 1 22.594848 33.539288 33.554732
334 1 1 22.428891 33.700046 33.253044
335 1 1 22.505028 33.938819 32.967403
336 1 1 22.690365 34.170561 32.730031
337 1 1 22.843604 34.352294 32.433567
338 1 1 23.084611 34.371049 32.140370
339 1 1 23.209954 34.054480 31.971631
340 1 1 23.502445 33.842739 32.090015
341 1 1 23.431988 33.469373 32.095819
342 1 1 23.267392 33.184869 32.286518
343 1 1 23.316837 32.811389 32.236839
344 1 1 23.563743 32.652553 32.478103
345 1 1 23.600892 32.618865 32.854780
346 1 1 23.820342 32.895100 32.995975
347 1 1 24.177196 32.768689 33.028761
348 1 1 24.553406 32.762184 33.081900
349 1 1 24.820494 33.031168 33.108582
350 1 1 24.962316 33.079862 32.759419
351 1 1 25.268255 33.060645 32.534847
352 1 1 25.310189 33.396091 32.361303
353 1 1 25.502501 33.463546 32.040577
354 1 1 25.312721 33.525500 31.717242
355 1 1 24.953841 33.412840 31.663271
356 1 1 24.580269 33.464933 31.617115
357 1 1 24.311394 33.379886 31.871817
358 1 1 24.093211 33.120159 32.043101
359 1 1 23.929184 32.824635 31.869434
360 1 1 23.800942 32.664765 31.549441
361 1 1 23.448518 32.569090 31.444354
362 1 1 23.393184 32.387033 31.115426
363 1 1 23.319912 32.184020 30.802670
364 1 1 23.062869 32.380469 30.603329
365 1 1 22.944542 32.549220 30.284077
366 1 1 22.622266 32.464827 30.101276
367 1 1 22.710022 32.283532 29.779048
368 1 1 23.064319 32.301666 29.642870
369 1 1 23.378010 32.145830 29.495516
370 1 1 23.718828 32.237472 29.636389
371 1 1 24.025731 32.306824 29.849463
372 1 1 24.401758 32.348232 29.813558
373 1 1 24.763571 32.462844 29.794694
374 1 1 24.886434 32.789003 29.643285
375 1 1 24.669308 33.031130 29.446738
376 1 1 24.460558 33.283721 29.639147
377 1 1 24.337738 33.635303 29.563613
378 1 1 24.303293 33.941194 29.786422
379 1 1 23.995076 34.159228 29.829592
380 1 1 23.850217 34.089254 30.173858
381 1 1 23.673187 34.006002 30.499634
382 1 1 23.665793 33.724197 30.754450
383 1 1 23.388924 33.493938 30.875793
384 1 1 23.258707 33.140634 30.926972
385 1 1 22.923613 32.978333 31.002939
386 1 1 22.770538 32.915439 31.345010
387 1 1 22.454381 32.852754 31.546293
388 1 1 22.251147 33.138874 31.692004
389 1 1 22.164938 33.503393 31.628024
390 1 1 22.433936 33.739590 31.500544
391 1 1 22.424216 33.804245 31.126210
392 1 1 22.466502 34.154765 30.985683
393 1 1 22.810389 34.292030 30.900243
394 1 1 22.924544 34.652477 30.862210
395 1 1 22.746230 34.903211 31.085227
396 1 1 22.407079 35.068535 31.130446
397 1 1 22.164528 35.187466 31.397700
398 1 1 22.159503 34.920275 31.667855
399 1 1 21.808803 34.808956 31.762813
400 1 1 21.596057 34.507397 31.853375
401 1 1 21.278967 34.559386 32.056233
402 1 1 21.082311 34.237100 32.099338
403 1 1 20.921451 34.083510 32.407452
404 1 1 20.814749 34.127195 32.769538
405 1 1 20.680592 33.901377 33.044143
406 1 1 20.304099 33.919231 33.092454
407 1 1 20.138649 34.101861 32.803192
408 1 1 20.202987 34.009189 32.440325
409 1 1 20.284267 33.944801 32.074746
410 1 1 19.963513 33.938174 31.871097
411 1 1 19.776669 34.134537 31.604768
412 1 1 19.473173 34.339542 31.503463
413 1 1 19.282917 34.658279 31.422163
414 1 1 19.056300 34.919751 31.265074
415 1 1 18.739374 35.018324 31.450119
416 1 1 18.421741 35.153817 31.291529
417 1 1 18.419273 35.522169 31.384861
418 1 1 18.319133 35.880715 31.308593
419 1 1 17.981626 35.965052 31.155700
420 1 1 17.684808 35.727889 31.148371
421 1 1 17.618850 35.353757 31.157011
422 1 1 17.473799 35.064705 30.957490
423 1 1 17.469644 34.925113 30.604082
424 1 1 17.583215 34.732403 30.296894
425 1 1 17.463419 34.692286 29.938509
426 1 1 17.158398 34.467338 29.966091
427 1 1 16.954357 34.157926 29.882242
428 1 1 16.633790 34.028172 30.039726
429 1 1 16.456668 33.694187 30.001233
430 1 1 16.224866 33.537149 30.258151
431 1 1 16.393696 33.214123 30.365624
432 1 1 16.171412 32.970002 30.553760
433 1 1 16.118170 32.599438 30.618931
434 1 1 15.925341 32.367768 30.387530
435 1 1 16.157329 32.237072 30.116421
436 1 1 16.402469 32.259162 29.826907
437 1 1 16.265282 32.085634 29.517928
438 1 1 16.051560 31.774142 29.559111
439 1 1 15.673695 31.813415 29.567801
440 1 1 15.394104 32.051877 29.471030
441 1 1 15.342497 32.401897 29.332382
442 1 1 15.225132 32.735508 29.193352
443 1 1 15.237597 33.085764 29.340202
444 1 1 15.583034 33.226826 29.268267
445 1 1 15.688438 33.546678 29.092242
446 1 1 15.715748 33.821218 28.830934
447 1 1 15.821693 33.974393 28.499704
448 1 1 16.007525 33.750311 28.255463
449 1 1 16.327644 33.740216 28.050959
450 1 1 16.633065 33.783718 27.829091
451 1 1 32.416001 8.806084 11.792169
452 1 1 32.540752 9.121898 11.962752
453 1 1 32.312866 9.406710 11.856216
454 1 1 32.287791 9.574739 11.516308
455 1 1 31.932501 9.512021 11.396994
456 1 1 31.828790 9.403718 11.047831
457 1 1 31.648581 9.069982 11.071167
458 1 1 31.827133 8.771755 11.224724
459 1 1 32.087631 8.651812 10.975415
460 1 1 32.166183 8.392224 10.709251
461 1 1 32.091513 8.263422 10.359630
462 1 1 31.847527 8.274034 10.068497
463 1 1 31.600173 8.367221 9.795492
464 1 1 31.599852 8.544237 9.459241
465 1 1 31.736249 8.520896 9.105332
466 1 1 31.866885 8.319613 8.810681
467 1 1 31.674468 7.992099 8.821188
468 1 1 31.840432 7.745700 8.584242
469 1 1 31.613309 7.442216 8.557549
470 1 1 31.520407 7.168155 8.311256
471 1 1 31.164363 7.182014 8.179194
472 1 1 31.064313 7.008106 7.856477
473 1 1 30.981903 6.877191 7.509390
474 1 1 30.690005 6.658449 7.402866
475 1 1 30.336483 6.525880 7.359883
476 1 1 30.057700 6.769335 7.273805
477 1 1 29.825100 6.889379 7.549282
478 1 1 29.880365 6.645222 7.835172
479 1 1 29.707607 6.738902 8.160408
480 1 1 29.330603 6.731674 8.113335
481 1 1 29.025938 6.508247 8.154071
482 1 1 28.662017 6.539178 8.258975
483 1 1 28.303048 6.616130 8.357055
484 1 1 28.014365 6.396068 8.469460
485 1 1 27.636808 6.390090 8.512062
486 1 1 27.382419 6.211125 8.293756
487 1 1 27.122800 5.933650 8.296119
488 1 1 26.886397 5.691295 8.123557
489 1 1 26.514439 5.707437 8.047489
490 1 1 26.332940 5.431678 8.235679
491 1 1 25.980720 5.289208 8.242237
492 1 1 25.627897 5.318504 8.380286
493 1 1 25.468944 5.589376 8.594208
494 1 1 25.444457 5.731107 8.945936
495 1 1 25.798017 5.811623 9.059570
496 1 1 26.132053 5.895215 9.220294
497 1 1 26.116929 5.756387 9.573703
498 1 1 26.245251 5.399584 9.598704
499 1 1 26.609750 5.292653 9.609041
500 1 1 26.818049 5.593449 9.506408
501 1 1 27.021103 5.629553 9.187244
502 1 1 27.368301 5.490326 9.120391
503 1 1 27.458860 5.148846 8.980425
504 1 1 27.775337 4.941403 9.015212
505 1 1 28.005932 4.778832 9.269763
506 1 1 28.364173 4.673930 9.340887
507 1 1 28.713686 4.643386 9.194914
508 1 1 28.717094 4.312807 9.007550
509 1 1 28.596095 3.962526 8.923509
510 1 1 28.482071 3.616631 9.031930
511 1 1 28.477764 3.422934 9.358829
512 1 1 28.464353 3.058436 9.252242
513 1 1 28.745392 2.912542 9.042165
514 1 1 28.870671 2.707516 8.747768
515 1 1 28.667419 2.545494 8.470573
516 1 1 28.346502 2.481837 8.277285
517 1 1 28.024133 2.680212 8.310837
518 1 1 28.028038 3.032472 8.453306
519 1 1 28.086856 3.374279 8.298037
520 1 1 28.172261 3.735660 8.217351
521 1 1 28.340046 3.728533 7.876474
522 1 1 28.140768 3.830616 7.569444
523 1 1 28.295197 3.837307 7.222303
524 1 1 28.532981 3.609704 7.032419
525 1 1 28.759722 3.445265 6.775615
526 1 1 28.580464 3.383858 6.446228
527 1 1 28.521544 3.678048 6.213032
528 1 1 28.208750 3.729157 6.003395
529 1 1 28.000822 3.492685 5.790681
530 1 1 27.674330 3.327689 5.893537
531 1 1 27.323797 3.449852 5.974796
532 1 1 27.016549 3.228532 6.006673
533 1 1 26.643042 3.163413 5.981135
534 1 1 26.452147 3.450902 6.140224
535 1 1 26.140679 3.384100 6.347408
536 1 1 25.967183 3.588174 6.616949
537 1 1 25.709255 3.590789 6.895995
538 1 1 25.382952 3.498061 7.067249
539 1 1 25.318699 3.670694 7.399619
540 1 1 24.976618 3.599815 7.549141
541 1 1 24.607635 3.676389 7.598010
542 1 1 24.346324 3.915170 7.459809
543 1 1 24.075765 3.889341 7.194232
544 1 1 24.134195 4.049608 6.854673
545 1 1 24.145516 3.815691 6.555417
546 1 1 24.163491 3.437272 6.525829
547 1 1 24.121652 3.059808 6.538894
548 1 1 23.790675 2.873809 6.522808
549 1 1 23.540678 2.991331 6.261867
550 1 1 23.589122 3.188044 5.940375
551 1 1 23.918949 3.141662 5.757446
552 1 1 24.295053 3.089591 5.772756
553 1 1 24.662896 3.147817 5.697249
554 1 1 24.738611 3.107959 5.327008
555 1 1 25.116748 3.123627 5.292847
556 1 1 25.230489 2.911527 4.998778
557 1 1 24.953256 2.736216 4.806923
558 1 1 24.902293 2.781564 4.433096
559 1 1 24.842687 2.560669 4.129694
560 1 1 24.922515 2.190012 4.155013
561 1 1 24.699655 1.965902 3.944044
562 1 1 24.695854 1.595216 4.027576
563 1 1 24.785156 1.382165 4.329295
564 1 1 24.552251 1.229147 4.587637
565 1 1 24.596967 1.370713 4.937436
566 1 1 24.813602 1.190139 5.192116
567 1 1 25.043829 1.411209 5.398329
568 1 1 25.376089 1.461869 5.575633
569 1 1 25.608030 1.662792 5.799761
570 1 1 25.418804 1.768677 6.111822
571 1 1 25.451044 1.656698 6.473514
572 1 1 25.284126 1.856726 6.750149
573 1 1 25.198513 1.815562 7.118084
574 1 1 25.168171 2.147978 7.299685
575 1 1 25.089669 2.100600 7.668457
576 1 1 25.160632 2.060351 8.039596
577 1 1 25.205640 1.715706 8.193199
578 1 1 25.340214 1.399288 8.031429
579 1 1 25.637881 1.289278 8.240456
580 1 1 25.941172 1.393067 8.444521
581 1 1 26.021008 1.409351 8.815683
582 1 1 25.906053 1.735935 8.972297
583 1 1 25.874169 2.063193 8.781808
584 1 1 25.903788 2.337265 9.043356
585 1 1 25.999607 2.664407 9.211274
586 1 1 25.896762 2.830207 9.537362
587 1 1 25.847298 2.725124 9.899179
588 1 1 25.662559 2.490192 10.133867
589 1 1 25.455626 2.173398 10.098931
590 1 1 25.228099 2.129300 10.400074
591 1 1 25.261929 1.787727 10.563120
592 1 1 25.485961 1.592793 10.800207
593 1 1 25.604915 1.259754 10.661157
594 1 1 25.558675 0.897980 10.554474
595 1 1 25.559932 0.855968 10.176806
596 1 1 25.431085 1.056408 9.880795
597 1 1 25.320684 0.928032 9.540601
598 1 1 25.107566 0.729335 9.296676
599 1 1 25.084267 0.516753 8.982564
600 1 1 25.251756 0.719933 8.708584
601 1 1 25.260295 0.572681 8.358379
602 1 1 25.417331 0.323110 8.118682
603 1 1 25.349112 0.172389 7.776587
604 1 1 25.652983 40.635231 7.808165
605 1 1 25.582612 40.305968 7.632001
606 1 1 25.410092 39.978103 7.547494
607 1 1 25.245055 39.741964 7.299702
608 1 1 25.477251 39.452335 7.218463
609 1 1 25.437060 39.147921 7.442331
610 1 1 25.107508 38.967163 7.498208
611 1 1 24.810278 39.076757 7.708075
612 1 1 24.650940 39.417452 7.762279
613 1 1 24.526989 39.680297 7.517435
614 1 1 24.537516 39.803267 7.158036
615 1 1 24.619211 40.161200 7.060005
616 1 1 24.642237 40.535713 6.999925
617 1 1 24.844929 0.150627 7.105105
618 1 1 24.562477 0.293560 6.894889
619 1 1 24.290872 0.558949 6.880772
620 1 1 23.924881 0.657561 6.853823
621 1 1 23.689090 0.826372 7.099394
622 1 1 23.456395 0.845096 7.399231
623 1 1 23.092648 0.738982 7.370454
624 1 1 22.757345 0.911326 7.322819
625 1 1 22.403236 1.034788 7.261463
626 1 1 22.163892 1.317677 7.345654
627 1 1 22.003862 1.659842 7.387049
628 1 1 21.949506 1.992506 7.211607
629 1 1 22.100868 2.147599 6.899460
630 1 1 22.108984 2.154082 6.519602
631 1 1 21.880985 2.439099 6.413860
632 1 1 21.980042 2.756090 6.229185
633 1 1 22.240750 2.952974 6.035103
634 1 1 22.501821 3.211419 5.937903
635 1 1 22.696977 3.196573 5.612183
636 1 1 22.523962 3.065540 5.300260
637 1 1 22.593059 2.894483 4.968047
638 1 1 22.757188 2.795471 4.639934
639 1 1 23.105766 2.903254 4.533746
640 1 1 23.373185 2.770383 4.768762
641 1 1 23.667944 2.563115 4.648109
642 1 1 23.995169 2.740211 4.725314
643 1 1 24.184513 2.892185 4.432991
644 1 1 24.363123 3.205630 4.552367
645 1 1 24.325310 3.565264 4.669129
646 1 1 24.200044 3.920468 4.618745
647 1 1 24.250923 4.295195 4.656046
648 1 1 24.464405 4.506267 4.889014
649 1 1 24.611420 4.725470 5.162394
650 1 1 24.596080 4.910603 5.493892
651 1 1 24.907817 4.811164 5.687107
652 1 1 25.252761 4.936585 5.588701
653 1 1 25.561128 5.157507 5.566283
654 1 1 25.539751 5.515793 5.691080
655 1 1 25.355987 5.774523 5.900101
656 1 1 25.399273 5.986010 6.212830
657 1 1 25.353106 5.906870 6.581619
658 1 1 25.138846 5.666278 6.783134
659 1 1 25.088646 5.516255 7.128638
660 1 1 25.409182 5.507668 7.332556
661 1 1 25.672024 5.331230 7.122357
662 1 1 25.711121 5.240709 6.755373
663 1 1 25.457132 5.215895 6.473816
664 1 1 25.200198 5.167787 6.198008
665 1 1 24.908870 4.949710 6.307417
666 1 1 24.545108 5.059575 6.310025
667 1 1 24.379977 4.915646 6.620534
668 1 1 24.028263 4.823838 6.731297
669 1 1 23.797885 4.570258 6.566909
670 1 1 23.428583 4.659528 6.573752
671 1 1 23.083026 4.805377 6.634733
672 1 1 23.021656 5.076793 6.375953
673 1 1 23.358736 5.221941 6.277414
674 1 1 23.602589 5.436951 6.080676
675 1 1 23.657547 5.671833 5.787060
676 1 1 23.737026 5.551129 5.435615
677 1 1 23.808579 5.664795 5.080144
678 1 1 23.980356 5.994635 5.002056
679 1 1 24.190209 6.311432 5.000679
680 1 1 24.344381 6.656167 4.958385
681 1 1 24.055180 6.901568 4.935126
682 1 1 23.822584 6.909804 4.634740
683 1 1 23.453909 6.824511 4.600041
684 1 1 23.104686 6.899663 4.470444
685 1 1 22.923851 7.139683 4.237874
686 1 1 22.900906 7.325191 3.907026
687 1 1 22.721062 7.563399 3.671838
688 1 1 22.480347 7.757888 3.892361
689 1 1 22.282809 7.639106 4.194470
690 1 1 21.916569 7.569472 4.268086
691 1 1 21.554492 7.677067 4.226572
692 1 1 21.309538 7.534266 3.973579
693 1 1 21.052663 7.301440 3.817992
694 1 1 21.048128 7.062672 3.522409
695 1 1 21.203097 6.741130 3.652775
696 1 1 21.568270 6.650281 3.599902
697 1 1 21.948016 6.646079 3.586656
698 1 1 22.281969 6.753896 3.732431
699 1 1 22.652970 6.701937 3.668724
700 1 1 22.954807 6.584226 3.470132
701 1 1 23.218056 6.696286 3.220048
702 1 1 23.252042 6.572618 2.862345
703 1 1 23.382929 6.405677 2.547069
704 1 1 23.272978 6.057446 2.441969
705 1 1 23.539157 5.915867 2.210659
706 1 1 23.841960 6.142507 2.247324
707 1 1 23.905927 6.516446 2.269186
708 1 1 24.259783 6.595522 2.382908
709 1 1 24.465627 6.415881 2.647025
710 1 1 24.479473 6.172447 2.938484
711 1 1 24.318476 6.079773 3.269982
712 1 1 24.341071 5.732174 3.421852
713 1 1 24.569590 5.640432 3.711270
714 1 1 24.492442 5.615506 4.082520
715 1 1 24.659570 5.544724 4.416373
716 1 1 24.927587 5.717628 4.622944
717 1 1 24.989003 5.718217 4.997948
718 1 1 24.766494 5.761430 5.302943
719 1 1 24.414588 5.849716 5.415939
720 1 1 24.405603 6.141934 5.658690
721 1 1 24.134558 6.102596 5.922104
722 1 1 24.184935 6.234578 6.274868
723 1 1 24.508554 6.131633 6.445377
724 1 1 24.811876 6.358423 6.476397
725 1 1 24.850804 6.718159 6.360316
726 1 1 25.220967 6.800391 6.335478
727 1 1 25.264627 6.980183 6.003562
728 1 1 25.031680 7.240454 5.853912
729 1 1 25.032296 7.601966 5.970997
730 1 1 25.011221 7.666026 6.344965
731 1 1 25.096809 7.527042 6.688124
732 1 1 25.195573 7.650445 7.033692
733 1 1 24.936071 7.769214 7.284596
734 1 1 24.668844 7.885058 7.528665
735 1 1 24.551974 7.766481 7.870251
736 1 1 24.207784 7.844770 8.010980
737 1 1 24.053669 7.609080 8.266124
738 1 1 23.941799 7.504342 8.613853
739 1 1 24.096440 7.611163 8.944118
740 1 1 24.251311 7.744873 9.264332
741 1 1 24.278117 7.470915 9.526302
742 1 1 24.558859 7.219055 9.479927
743 1 1 24.808381 7.250608 9.195070
744 1 1 25.109091 7.468242 9.276365
745 1 1 25.315820 7.778347 9.202218
746 1 1 25.540703 7.937574 9.463894
747 1 1 25.801344 7.677821 9.558735
748 1 1 25.816121 7.585850 9.927141
749 1 1 25.571239 7.712860 10.188486
750 1 1 25.507179 8.040074 10.370769
751 1 1 25.616287 8.080200 10.732550
752 1 1 25.550198 8.117875 11.104857
753 1 1 25.742463 8.356691 11.329358
754 1 1 25.715820 8.477820 11.688549
755 1 1 25.639972 8.835408 11.792367
756 1 1 25.560257 8.960464 12.142233
757 1 1 25.720286 8.968345 12.486804
758 1 1 25.909975 9.278783 12.596559
759 1 1 25.869251 9.644178 12.500495
760 1 1 25.669652 9.915712 12.324912
761 1 1 25.864939 10.175659 12.128213
762 1 1 26.017146 10.503807 12.244625
763 1 1 25.741835 10.733076 12.371272
764 1 1 25.574452 11.034355 12.531316
765 1 1 25.448843 11.249485 12.818269
766 1 1 25.712608 11.445288 13.009289
767 1 1 26.048835 11.272968 12.968582
768 1 1 26.387833 11.443983 12.953272
769 1 1 26.362572 11.721135 12.694527
770 1 1 26.207338 11.961795 12.444757
771 1 1 26.035443 11.908657 12.110051
772 1 1 25.779653 11.770179 11.865520
773 1 1 25.403437 11.742786 11.911463
774 1 1 25.155863 11.782951 12.196934
775 1 1 25.118602 12.141858 12.316086
776 1 1 24.955650 12.395323 12.547608
777 1 1 24.918318 12.395038 12.925769
778 1 1 24.988355 12.299684 13.286882
779 1 1 25.289530 12.097075 13.399322
780 1 1 25.654923 11.995928 13.373675
781 1 1 25.999010 11.964093 13.215591
782 1 1 26.229447 12.265790 13.232259
783 1 1 26.494504 12.418303 13.006683
784 1 1 26.531401 12.742382 12.811717
785 1 1 26.717065 13.068111 12.749832
786 1 1 26.917286 13.115625 12.430373
787 1 1 27.065036 13.462928 12.386203
788 1 1 27.368829 13.637735 12.533011
789 1 1 27.653085 13.882277 12.471386
790 1 1 27.978132 13.799970 12.292583
791 1 1 28.267342 13.884594 12.524092
792 1 1 28.589383 13.863006 12.724650
793 1 1 28.585076 13.513008 12.872579
794 1 1 28.466586 13.257035 13.127212
795 1 1 28.495252 12.887874 13.212642
796 1 1 28.759022 12.614880 13.229956
797 1 1 29.135775 12.576499 13.261329
798 1 1 29.289179 12.386242 13.552309
799 1 1 29.556298 12.167265 13.710729
800 1 1 29.665685 12.180668 14.074397
801 1 1 29.483442 12.239832 14.402555