LAMMPS data file for polymer system

27000 atoms
26940 bonds

1 atom types
1 bond types

0.0 40.688818183822356 xlo xhi
0.0 40.688818183822356 ylo yhi
0.0 40.688818183822356 zlo zhi

Masses

1 5.65487

Atoms

1 1 1 4.206857 9.747642 23.336808
2 1 1 4.400732 9.428394 23.266854
3 1 1 4.500534 9.289611 23.606234
4 1 1 4.299500 9.055409 23.827898
5 1 1 3.929083 8.976176 23.797669
6 1 1 3.782680 8.625543 23.792891
7 1 1 3.867868 8.377856 24.068198
8 1 1 4.072953 8.086942 24.201273
9 1 1 3.872665 7.767840 24.151690
10 1 1 4.058645 7.487416 24.328252
11 1 1 4.155498 7.210012 24.569222
12 1 1 4.302179 6.877088 24.459465
13 1 1 4.559847 6.772439 24.718416
14 1 1 4.405088 6.681079 25.053234
15 1 1 4.228423 6.955221 25.248262
16 1 1 4.387678 7.295186 25.189422
17 1 1 4.334022 7.563834 25.452764
18 1 1 4.357644 7.942993 25.443778
19 1 1 4.443670 8.206494 25.703713
20 1 1 4.737946 8.328035 25.911149
21 1 1 5.096501 8.413302 25.818585
22 1 1 5.241754 8.762446 25.855995
23 1 1 5.354186 9.121505 25.802741
24 1 1 5.386826 9.217537 25.436528
25 1 1 5.442830 9.574594 25.319167
26 1 1 5.241984 9.828667 25.120402
27 1 1 5.102602 10.138453 25.290712
28 1 1 4.815678 10.297431 25.482546
29 1 1 4.942974 10.561811 25.723998
30 1 1 5.144589 10.847810 25.575824
31 1 1 5.507794 10.858162 25.464582
32 1 1 5.791045 10.907755 25.712995
33 1 1 6.117894 10.980021 25.533142
34 1 1 6.037387 11.152536 25.204270
35 1 1 6.202371 11.315732 24.903359
36 1 1 6.165253 11.689810 24.958932
37 1 1 6.278551 11.823217 25.296224
38 1 1 6.169854 12.029462 25.596304
39 1 1 6.339785 12.130915 25.920697
40 1 1 6.689972 12.120573 26.067879
41 1 1 6.968521 12.167260 26.322104
42 1 1 7.182269 12.196624 26.634913
43 1 1 7.293785 11.847612 26.735683
44 1 1 7.331911 11.483747 26.838389
45 1 1 7.302599 11.132240 26.979753
46 1 1 7.505228 11.114731 27.300743
47 1 1 7.547028 11.091954 27.677750
48 1 1 7.759598 11.114234 27.991943
49 1 1 7.895878 11.451813 28.100884
50 1 1 8.166885 11.457044 28.367207
51 1 1 8.443169 11.203400 28.306121
52 1 1 8.765459 11.077634 28.463322
53 1 1 8.850397 11.199794 28.812983
54 1 1 9.034190 10.918182 28.989943
55 1 1 8.944941 10.709962 29.295032
56 1 1 9.100496 10.694718 29.641399
57 1 1 9.433364 10.754927 29.814529
58 1 1 9.526423 11.082756 29.982659
59 1 1 9.381818 11.433962 29.970649
60 1 1 9.248943 11.602879 29.657263
61 1 1 9.195742 11.635867 29.282454
62 1 1 9.043615 11.811096 28.981536
63 1 1 9.253478 11.762516 28.668491
64 1 1 9.396199 11.908241 28.347874
65 1 1 9.643584 11.689874 28.159415
66 1 1 9.563968 11.579045 27.804763
67 1 1 9.255495 11.643202 27.592329
68 1 1 9.257223 11.842304 27.268669
69 1 1 8.965703 12.032814 27.116609
70 1 1 8.673785 12.245986 27.233831
71 1 1 8.592267 12.362887 27.586094
72 1 1 8.844063 12.634534 27.670988
73 1 1 9.143696 12.858994 27.736081
74 1 1 9.473610 12.850216 27.547721
75 1 1 9.602095 12.492649 27.541639
76 1 1 9.699481 12.269340 27.250007
77 1 1 9.696474 12.380111 26.886523
78 1 1 9.684607 12.227594 26.538675
79 1 1 9.889668 11.922338 26.442922
80 1 1 10.092950 11.738133 26.705876
81 1 1 10.182801 11.804698 27.069051
82 1 1 10.049211 11.601945 27.361361
83 1 1 9.862004 11.291483 27.247489
84 1 1 9.763632 10.931302 27.318148
85 1 1 9.572507 10.626211 27.439766
86 1 1 9.202648 10.663766 27.518469
87 1 1 8.856701 10.618379 27.367934
88 1 1 8.529817 10.786864 27.272230
89 1 1 8.515564 11.157246 27.188483
90 1 1 8.714413 11.210534 26.869078
91 1 1 8.805045 10.884507 26.696185
92 1 1 8.870948 10.541547 26.546402
93 1 1 8.534205 10.411031 26.428210
94 1 1 8.537246 10.041196 26.515460
95 1 1 8.217894 9.896044 26.369359
96 1 1 8.098848 9.564167 26.511084
97 1 1 8.235283 9.234143 26.640967
98 1 1 8.502823 9.234655 26.910823
99 1 1 8.510007 9.052694 27.244347
100 1 1 8.521252 8.681802 27.162413
101 1 1 8.459715 8.386518 26.931284
102 1 1 8.680832 8.128492 26.761196
103 1 1 8.722154 7.862100 26.493375
104 1 1 8.759465 7.669942 26.167672
105 1 1 8.626690 7.687418 25.812052
106 1 1 8.903765 7.562300 25.584073
107 1 1 9.100231 7.666684 25.276006
108 1 1 9.096530 7.488107 24.940601
109 1 1 8.951318 7.402639 24.600000
110 1 1 8.994002 7.691680 24.357033
111 1 1 8.963755 8.032621 24.522092
112 1 1 8.666899 8.145490 24.730748
113 1 1 8.423371 8.431627 24.674005
114 1 1 8.090609 8.447522 24.491201
115 1 1 7.770672 8.351073 24.310266
116 1 1 7.786114 8.216285 23.955310
117 1 1 7.845871 8.368998 23.612515
118 1 1 7.634819 8.490704 23.320891
119 1 1 7.774600 8.539782 22.970958
120 1 1 7.850308 8.426862 22.616110
121 1 1 8.047806 8.259104 22.338167
122 1 1 8.401910 8.136410 22.401069
123 1 1 8.620653 7.825815 22.392002
124 1 1 8.800694 7.502933 22.304067
125 1 1 9.092188 7.271608 22.381007
126 1 1 9.458328 7.184621 22.328331
127 1 1 9.709490 7.059560 22.072055
128 1 1 10.080351 7.123129 22.018943
129 1 1 10.396030 7.055060 22.219226
130 1 1 10.431804 6.728815 22.410757
131 1 1 10.511705 6.399306 22.239178
132 1 1 10.478192 6.256938 21.888452
133 1 1 10.527281 5.983691 21.628979
134 1 1 10.881464 5.997618 21.492012
135 1 1 11.132946 6.281225 21.518933
136 1 1 11.368567 6.460197 21.280498
137 1 1 11.732056 6.566526 21.249346
138 1 1 11.917341 6.730229 21.537913
139 1 1 11.689797 6.697867 21.840529
140 1 1 11.369217 6.572721 22.001670
141 1 1 11.219876 6.542612 22.349795
142 1 1 11.190074 6.291101 22.633087
143 1 1 10.862291 6.373944 22.806567
144 1 1 10.805238 6.380211 23.182207
145 1 1 11.049069 6.349833 23.472076
146 1 1 11.063172 6.559142 23.788921
147 1 1 10.947444 6.581629 24.150171
148 1 1 10.778676 6.325961 24.375007
149 1 1 10.780849 6.122158 24.695724
150 1 1 10.623274 6.020656 25.026281
151 1 1 10.506628 5.950490 25.381063
152 1 1 10.552227 5.747237 25.698882
153 1 1 10.334978 5.439812 25.646989
154 1 1 10.371542 5.067125 25.711543
155 1 1 10.390190 4.751428 25.922227
156 1 1 10.232325 4.428093 26.044428
157 1 1 9.969571 4.269489 26.268493
158 1 1 9.922628 3.918709 26.130110
159 1 1 10.027702 3.636498 25.898342
160 1 1 10.301073 3.459581 25.702463
161 1 1 10.476393 3.144882 25.823405
162 1 1 10.377776 2.895386 26.092527
163 1 1 10.206761 3.032088 26.403117
164 1 1 10.125730 3.388235 26.507965
165 1 1 10.423048 3.545997 26.684355
166 1 1 10.348215 3.851083 26.898183
167 1 1 10.183198 3.790388 27.235059
168 1 1 10.075599 3.426017 27.242578
169 1 1 10.042703 3.068378 27.118432
170 1 1 10.293128 2.858398 27.312327
171 1 1 10.230203 2.935497 27.679064
172 1 1 10.370650 2.879306 28.027658
173 1 1 10.440727 3.128892 28.305500
174 1 1 10.664473 2.942945 28.549961
175 1 1 10.913049 2.664534 28.621357
176 1 1 11.125953 2.471326 28.869837
177 1 1 10.924545 2.378661 29.178460
178 1 1 10.719611 2.068748 29.258185
179 1 1 10.532550 1.745551 29.187816
180 1 1 10.745046 1.457972 29.059196
181 1 1 11.092759 1.524096 29.197482
182 1 1 11.342081 1.716177 29.410423
183 1 1 11.632636 1.914058 29.554717
184 1 1 12.005148 1.948056 29.621643
185 1 1 12.341211 1.780424 29.679622
186 1 1 12.275504 1.505448 29.933534
187 1 1 12.109311 1.277155 30.187820
188 1 1 11.869152 1.449532 30.426587
189 1 1 11.566654 1.664499 30.508344
190 1 1 11.372676 1.841264 30.233523
191 1 1 11.025334 1.764362 30.099959
192 1 1 10.906522 1.539850 29.817333
193 1 1 10.662259 1.266777 29.918165
194 1 1 10.303383 1.293873 30.040121
195 1 1 10.106346 1.167081 30.339286
196 1 1 9.795918 1.046567 30.522348
197 1 1 9.641863 0.915759 30.844149
198 1 1 9.452136 1.210576 30.990730
199 1 1 9.602838 1.502417 31.181826
200 1 1 9.627946 1.441172 31.556017
201 1 1 9.474009 1.301003 31.873910
202 1 1 9.369782 1.557191 32.134495
203 1 1 9.237482 1.596053 32.488594
204 1 1 9.233766 1.695670 32.855286
205 1 1 8.964619 1.484053 33.020143
206 1 1 8.881627 1.221379 33.281896
207 1 1 8.515921 1.265850 33.375073
208 1 1 8.354689 1.323487 33.714311
209 1 1 8.082971 1.394539 33.970281
210 1 1 7.817834 1.641288 33.855317
211 1 1 7.462145 1.512052 33.889725
212 1 1 7.163058 1.584203 33.666698
213 1 1 7.203140 1.946265 33.558512
214 1 1 7.461053 2.019419 33.289199
215 1 1 7.373874 2.156192 32.945552
216 1 1 7.397817 2.306370 32.597309
217 1 1 7.695918 2.541535 32.582031
218 1 1 8.034441 2.623852 32.733774
219 1 1 8.057975 2.884134 33.009635
220 1 1 7.985727 3.194652 33.216418
221 1 1 8.168908 3.471372 33.401541
222 1 1 8.532183 3.576229 33.363635
223 1 1 8.776136 3.355029 33.174010
224 1 1 8.780174 3.234764 32.813566
225 1 1 8.616586 3.351696 32.491129
226 1 1 8.325986 3.594091 32.456541
227 1 1 8.099949 3.881030 32.561295
228 1 1 8.050635 3.832523 32.934946
229 1 1 7.828472 4.026706 33.174396
230 1 1 7.752134 3.911736 33.528450
231 1 1 7.586248 3.782117 33.844806
232 1 1 7.564191 3.414754 33.939451
233 1 1 7.489785 3.182082 34.230531
234 1 1 7.830069 3.065550 34.353116
235 1 1 8.157811 2.928078 34.218629
236 1 1 8.220444 2.569859 34.108375
237 1 1 8.037931 2.239067 34.067559
238 1 1 7.677933 2.168090 34.166368
239 1 1 7.670056 2.041548 34.524593
240 1 1 7.569263 1.676812 34.559351
241 1 1 7.483328 1.599014 34.921239
242 1 1 7.263475 1.572399 35.230037
243 1 1 7.352957 1.471753 35.585372
244 1 1 7.176701 1.388310 35.911518
245 1 1 6.859395 1.326666 36.111309
246 1 1 6.902526 1.004463 36.308096
247 1 1 7.039414 1.111435 36.646059
248 1 1 6.860023 1.226576 36.960641
249 1 1 7.014136 1.268854 37.305404
250 1 1 6.897040 1.168359 37.652663
251 1 1 6.595122 1.075723 37.864002
252 1 1 6.384144 0.844779 37.648240
253 1 1 6.603826 0.572326 37.500224
254 1 1 6.586509 0.303460 37.232248
255 1 1 6.785470 0.035059 37.051208
256 1 1 6.595934 40.509049 37.300858
257 1 1 6.648029 40.595099 36.934413
258 1 1 6.822428 40.504888 36.609072
259 1 1 6.852754 40.610776 36.245385
260 1 1 7.167129 0.127815 36.301872
261 1 1 7.236351 0.198042 36.668855
262 1 1 7.434442 40.562695 36.660085
263 1 1 7.656941 40.534124 36.353363
264 1 1 7.672270 40.672249 35.999688
265 1 1 7.757472 0.171412 35.680621
266 1 1 7.938517 0.233328 35.352308
267 1 1 8.147884 0.541211 35.276324
268 1 1 8.361277 0.488448 34.966358
269 1 1 8.473281 0.788312 34.761573
270 1 1 8.697782 0.970713 34.515140
271 1 1 8.857487 1.082556 34.188972
272 1 1 9.208617 0.961617 34.108468
273 1 1 9.573712 0.879650 34.174705
274 1 1 9.647648 0.798991 34.538611
275 1 1 9.571630 0.617577 34.863742
276 1 1 9.811931 0.580373 35.155754
277 1 1 10.172439 0.525258 35.262505
278 1 1 10.320291 0.326428 35.550614
279 1 1 10.148413 0.158924 35.845233
280 1 1 9.998473 40.574125 36.062147
281 1 1 9.672583 40.505766 35.879056
282 1 1 9.660698 40.163112 35.715207
283 1 1 9.835118 39.950763 35.452746
284 1 1 9.813431 39.721281 35.150641
285 1 1 9.987184 39.395975 35.242220
286 1 1 9.925301 39.176661 35.546312
287 1 1 10.059804 39.199730 35.900962
288 1 1 10.160650 39.189673 36.267198
289 1 1 10.202347 38.936979 36.547925
290 1 1 10.408374 38.669471 36.722258
291 1 1 10.659689 38.499366 36.493556
292 1 1 10.989395 38.686957 36.515997
293 1 1 11.086711 38.976815 36.741634
294 1 1 11.247719 39.297839 36.617459
295 1 1 11.257685 39.506060 36.299741
296 1 1 11.543752 39.742230 36.217342
297 1 1 11.766779 40.039388 36.137619
298 1 1 12.010042 40.269521 36.317235
299 1 1 11.965123 40.447692 36.649858
300 1 1 11.681702 40.292323 36.849689
301 1 1 11.302253 40.312746 36.850974
302 1 1 11.089887 40.551646 37.056467
303 1 1 10.934766 0.044049 36.760670
304 1 1 11.202045 0.290979 36.651182
305 1 1 11.403263 0.471426 36.918296
306 1 1 11.724393 0.385073 37.102195
307 1 1 11.980524 0.632634 37.234522
308 1 1 12.110257 0.948912 37.400468
309 1 1 12.280232 1.282457 37.465704
310 1 1 12.565691 1.298597 37.215399
311 1 1 12.541290 1.057338 36.922826
312 1 1 12.726316 0.891223 36.635474
313 1 1 12.783880 0.763888 36.282102
314 1 1 12.848677 0.401402 36.188266
315 1 1 12.816031 0.047755 36.053105
316 1 1 12.682831 40.618228 36.388742
317 1 1 12.898830 40.483507 36.106617
318 1 1 13.177584 40.420817 35.856085
319 1 1 13.516396 40.248755 35.855225
320 1 1 13.758618 40.441373 36.075740
321 1 1 13.930202 0.081019 36.159828
322 1 1 13.561077 0.167921 36.135439
323 1 1 13.474799 0.330767 35.803118
324 1 1 13.246371 0.422498 35.513625
325 1 1 12.978600 0.415458 35.244090
326 1 1 12.960770 0.148201 34.974543
327 1 1 12.810237 40.655866 34.676343
328 1 1 13.005690 0.093054 34.375809
329 1 1 12.900822 0.300058 34.074891
330 1 1 12.943673 40.611872 34.054118
331 1 1 13.121217 40.648277 33.720123
332 1 1 13.277654 0.063990 33.389971
333 1 1 13.225065 0.276190 33.079156
334 1 1 12.976751 0.536630 32.957046
335 1 1 12.874907 0.875524 33.095534
336 1 1 12.562033 1.033922 32.949177
337 1 1 12.424136 0.949167 32.605374
338 1 1 12.047276 0.985049 32.572367
339 1 1 11.810360 0.765373 32.772400
340 1 1 11.459188 0.730564 32.913348
341 1 1 11.225950 0.627852 32.631478
342 1 1 11.118632 0.268848 32.568237
343 1 1 11.069082 0.078218 32.893207
344 1 1 11.160075 0.114298 33.260383
345 1 1 11.511763 0.256758 33.280889
346 1 1 11.374696 40.591423 33.267178
347 1 1 11.416842 40.218916 33.205029
348 1 1 11.270946 40.096752 32.876106
349 1 1 11.125971 39.819887 32.659938
350 1 1 10.984705 39.576199 32.404870
351 1 1 10.922883 39.711215 32.055086
352 1 1 10.840372 39.806574 31.696619
353 1 1 10.760969 39.831929 31.325873
354 1 1 10.457537 39.733328 31.119459
355 1 1 10.400016 39.369303 31.026846
356 1 1 10.451246 39.334511 30.651926
357 1 1 10.329772 38.986626 30.559080
358 1 1 10.473685 38.652900 30.448103
359 1 1 10.688568 38.360597 30.561169
360 1 1 11.058264 38.314345 30.635904
361 1 1 11.328737 38.522828 30.802574
362 1 1 11.520189 38.426141 31.116259
363 1 1 11.765537 38.443560 31.405915
364 1 1 12.065302 38.350392 31.620065
365 1 1 12.401697 38.314144 31.793054
366 1 1 12.323800 38.182766 32.141007
367 1 1 12.600120 38.087265 32.383756
368 1 1 12.861504 38.006367 32.647449
369 1 1 12.935006 38.105531 33.006843
370 1 1 12.738074 38.117995 33.331593
371 1 1 12.657498 38.393709 33.580368
372 1 1 12.541461 38.735754 33.698442
373 1 1 12.512323 39.041667 33.921977
374 1 1 12.641844 39.371108 34.060155
375 1 1 12.352180 39.580979 34.188409
376 1 1 12.340452 39.527530 34.564448
377 1 1 12.451815 39.625567 34.914287
378 1 1 12.601601 39.324986 35.092093
379 1 1 12.861734 39.150588 34.876881
380 1 1 12.865572 38.886476 34.603696
381 1 1 13.109055 38.845493 34.314843
382 1 1 13.270345 38.503462 34.352265
383 1 1 13.417580 38.390120 34.683740
384 1 1 13.172784 38.213674 34.914698
385 1 1 13.105839 38.018295 35.233673
386 1 1 12.994572 37.885682 35.571954
387 1 1 12.805844 37.962922 35.892603
388 1 1 12.699496 37.976403 36.257169
389 1 1 12.523138 38.264750 36.430817
390 1 1 12.155718 38.335306 36.497338
391 1 1 11.868639 38.219291 36.717624
392 1 1 11.554143 38.041771 36.599392
393 1 1 11.250160 37.831492 36.687578
394 1 1 11.229812 37.537359 36.927310
395 1 1 10.933042 37.327515 36.816435
396 1 1 10.919302 37.019992 36.593633
397 1 1 11.055386 36.758922 36.353375
398 1 1 11.202841 36.475871 36.559626
399 1 1 11.547812 36.323385 36.513336
400 1 1 11.591440 36.224795 36.148950
401 1 1 11.935849 36.119401 36.027812
402 1 1 12.208855 36.296369 35.831470
403 1 1 12.225087 36.654776 35.706247
404 1 1 12.566014 36.804825 35.631053
405 1 1 12.610412 36.757157 35.256678
406 1 1 12.443414 36.613111 34.947223
407 1 1 12.390092 36.237806 34.920713
408 1 1 12.667826 36.037768 35.085784
409 1 1 12.986744 35.932985 35.263862
410 1 1 13.099162 35.570022 35.259399
411 1 1 12.966303 35.276412 35.058049
412 1 1 12.932836 35.182841 34.691273
413 1 1 12.845881 35.302010 34.341077
414 1 1 12.475426 35.385101 34.357182
415 1 1 12.116409 35.306593 34.260523
416 1 1 11.879496 35.572993 34.392064
417 1 1 11.688466 35.756197 34.119403
418 1 1 11.905873 35.911604 33.849250
419 1 1 12.281634 35.855346 33.855494
420 1 1 12.484809 36.123664 34.031918
421 1 1 12.693523 36.437527 33.983665
422 1 1 12.699644 36.682923 34.273740
423 1 1 12.899944 36.823378 34.564519
424 1 1 13.260040 36.711307 34.611109
425 1 1 13.436458 36.412743 34.455749
426 1 1 13.423047 36.043542 34.544688
427 1 1 13.507602 35.680241 34.617234
428 1 1 13.707492 35.381036 34.495085
429 1 1 13.964684 35.338349 34.218625
430 1 1 14.272944 35.556212 34.262346
431 1 1 14.571341 35.675558 34.059576
432 1 1 14.465507 36.007719 33.908353
433 1 1 14.343012 36.304776 34.111212
434 1 1 14.636901 36.414958 34.325429
435 1 1 14.997480 36.306258 34.274763
436 1 1 15.191464 36.037512 34.088898
437 1 1 15.513291 36.166985 33.933773
438 1 1 15.801784 36.301529 33.726240
439 1 1 15.952316 36.275164 33.378325
440 1 1 15.885851 36.385729 33.020893
441 1 1 15.789457 36.518785 32.678249
442 1 1 16.073423 36.661065 32.469635
443 1 1 16.082538 37.036817 32.525561
444 1 1 16.007580 37.313821 32.774659
445 1 1 15.847576 37.649653 32.697097
446 1 1 15.527993 37.772148 32.531985
447 1 1 15.479590 38.100813 32.347496
448 1 1 15.733440 38.215811 32.089163
449 1 1 16.099388 38.152389 32.169535
450 1 1 16.233246 38.176349 32.524371
451 1 1 40.091939 32.806739 39.988564
452 1 1 39.984760 32.494621 39.800164
453 1 1 39.691958 32.526052 39.559999
454 1 1 39.488144 32.846657 39.551491
455 1 1 39.590702 33.094412 39.820748
456 1 1 39.652367 33.456035 39.721618
457 1 1 39.637200 33.815067 39.598063
458 1 1 39.756083 34.133226 39.768480
459 1 1 40.003179 34.416375 39.824784
460 1 1 39.849608 34.716903 39.650146
461 1 1 40.001318 34.967953 39.408572
462 1 1 39.992351 34.796032 39.069805
463 1 1 40.314407 34.869588 38.882004
464 1 1 40.390838 34.900844 38.511085
465 1 1 40.545906 34.987871 38.175257
466 1 1 40.470577 35.048626 37.807787
467 1 1 40.350003 35.168729 37.468027
468 1 1 39.985612 35.111014 37.376990
469 1 1 39.801125 34.854877 37.165428
470 1 1 39.502792 34.725016 36.969128
471 1 1 39.334916 34.403088 36.856968
472 1 1 39.316389 34.029294 36.791126
473 1 1 39.397684 33.669990 36.884353
474 1 1 39.118088 33.512392 37.087795
475 1 1 38.898305 33.712845 37.324257
476 1 1 38.557349 33.545472 37.335876
477 1 1 38.498881 33.307532 37.045417
478 1 1 38.271731 33.066953 36.858536
479 1 1 38.402159 32.891658 36.547634
480 1 1 38.714729 32.931250 36.335191
481 1 1 39.048296 33.037462 36.483015
482 1 1 39.382151 33.218929 36.486275
483 1 1 39.715588 33.198450 36.667384
484 1 1 39.998990 33.416079 36.796694
485 1 1 40.233327 33.440315 37.094853
486 1 1 40.474104 33.444762 37.388803
487 1 1 0.115026 33.585131 37.262437
488 1 1 0.379368 33.312149 37.260495
489 1 1 0.697891 33.304482 37.467581
490 1 1 0.842941 33.074925 37.733408
491 1 1 0.665777 32.858573 37.990711
492 1 1 0.890607 32.601016 38.156589
493 1 1 1.258847 32.507394 38.162420
494 1 1 1.379754 32.246326 38.410664
495 1 1 1.648461 31.985671 38.475897
496 1 1 2.014315 31.909332 38.407169
497 1 1 2.232010 31.732094 38.663285
498 1 1 2.290963 31.385377 38.807201
499 1 1 1.966243 31.212148 38.901797
500 1 1 1.688989 31.209492 39.161650
501 1 1 1.379021 31.274297 39.371698
502 1 1 1.384251 31.649084 39.434211
503 1 1 1.332797 31.879495 39.136448
504 1 1 0.960286 31.905435 39.066005
505 1 1 0.709234 32.130304 38.890486
506 1 1 0.473321 32.422264 38.949687
507 1 1 0.106716 32.328994 38.985758
508 1 1 40.534393 32.497535 39.204389
509 1 1 40.168751 32.406032 39.156090
510 1 1 39.932207 32.483171 38.868868
511 1 1 39.696038 32.570181 38.584170
512 1 1 39.860068 32.639224 38.248421
513 1 1 40.197778 32.812769 38.233117
514 1 1 40.544636 32.944616 38.315005
515 1 1 0.010782 32.691468 38.077724
516 1 1 0.075563 32.370588 38.270699
517 1 1 0.125936 31.995815 38.233178
518 1 1 0.473134 31.907983 38.360216
519 1 1 0.415487 31.633391 38.616490
520 1 1 0.596658 31.361476 38.810497
521 1 1 0.694266 30.998105 38.757259
522 1 1 0.619471 30.884677 38.402379
523 1 1 0.604739 30.573842 38.184286
524 1 1 0.373452 30.544449 37.884216
525 1 1 0.467455 30.387990 37.550923
526 1 1 0.213692 30.112860 37.485289
527 1 1 40.568545 30.085526 37.306068
528 1 1 40.550785 30.013513 36.933377
529 1 1 40.277098 29.938229 36.680735
530 1 1 40.148825 29.609931 36.538726
531 1 1 40.047790 29.347651 36.794462
532 1 1 39.788320 29.162938 37.001721
533 1 1 39.716599 28.967916 37.319876
534 1 1 39.529159 28.640240 37.276356
535 1 1 39.199269 28.631165 37.464745
536 1 1 39.070724 28.629331 37.822339
537 1 1 38.872237 28.812804 38.089435
538 1 1 38.654454 29.017450 38.324149
539 1 1 38.456463 29.339683 38.287190
540 1 1 38.648793 29.593337 38.494720
541 1 1 38.894470 29.881361 38.527659
542 1 1 39.242098 29.871059 38.374530
543 1 1 39.548930 29.865079 38.598624
544 1 1 39.572214 29.561122 38.825491
545 1 1 39.466184 29.362694 39.131733
546 1 1 39.511229 28.985388 39.135047
547 1 1 39.556607 28.867736 38.776580
548 1 1 39.588554 28.939388 38.404766
549 1 1 39.809654 28.856868 38.106932
550 1 1 39.916664 29.195174 37.970925
551 1 1 39.801483 29.540658 37.862416
552 1 1 39.879682 29.911547 37.835472
553 1 1 39.931446 30.286365 37.800372
554 1 1 40.250679 30.390021 37.978546
555 1 1 40.551342 30.584349 38.105974
556 1 1 40.629266 30.583514 38.477898
557 1 1 0.185352 30.635738 38.763720
558 1 1 0.004843 30.483573 39.061482
559 1 1 40.674171 30.849445 39.162269
560 1 1 40.546397 30.496652 39.222361
561 1 1 40.649685 30.270646 39.509855
562 1 1 0.063183 29.936246 39.658543
563 1 1 0.075577 29.597354 39.487083
564 1 1 0.186166 29.242121 39.564412
565 1 1 0.216890 29.034800 39.881388
566 1 1 40.636159 28.776902 39.809058
567 1 1 40.283037 28.847173 39.687538
568 1 1 39.920730 28.825690 39.800107
569 1 1 39.601546 28.823893 40.006308
570 1 1 39.321744 28.821583 40.263417
571 1 1 38.951235 28.890880 40.311595
572 1 1 38.638633 29.098179 40.372479
573 1 1 38.381272 29.084838 40.651742
574 1 1 38.222741 28.933333 0.273269
575 1 1 38.001995 29.111300 0.526249
576 1 1 38.173649 29.229565 0.843972
577 1 1 38.073546 29.370393 1.182420
578 1 1 38.068677 29.480858 1.545977
579 1 1 37.741252 29.579533 1.711676
580 1 1 37.692618 29.466206 2.071109
581 1 1 37.668515 29.267879 2.394351
582 1 1 37.492091 29.307207 2.728608
583 1 1 37.334163 29.560797 2.963451
584 1 1 37.164787 29.873363 3.097667
585 1 1 36.953378 30.065898 3.347940
586 1 1 36.847858 30.430930 3.343796
587 1 1 36.699711 30.704890 3.561507
588 1 1 36.424881 30.631035 3.813328
589 1 1 36.311235 30.471324 4.138869
590 1 1 36.103381 30.359127 4.436540
591 1 1 35.821502 30.105036 4.456094
592 1 1 35.521981 30.196969 4.671118
593 1 1 35.562034 30.503530 4.892062
594 1 1 35.773203 30.811971 4.960410
595 1 1 35.922744 31.160791 4.979449
596 1 1 36.153707 31.451821 4.899716
597 1 1 36.210789 31.824366 4.948213
598 1 1 36.442673 32.104056 5.059583
599 1 1 36.791515 31.953728 5.070104
600 1 1 37.137363 32.024064 5.210965
601 1 1 37.454548 32.149339 5.043335
602 1 1 37.788973 32.159832 5.223475
603 1 1 37.871344 32.194749 5.592792
604 1 1 37.995941 32.251928 5.947202
605 1 1 37.817301 32.560441 6.078758
606 1 1 37.448062 32.650083 6.073553
607 1 1 37.161485 32.877051 6.177281
608 1 1 37.045870 33.223467 6.282301
609 1 1 37.136067 33.589446 6.234094
610 1 1 37.503665 33.614053 6.327188
611 1 1 37.855348 33.736957 6.402110
612 1 1 38.205589 33.589747 6.409859
613 1 1 38.509410 33.508777 6.196465
614 1 1 38.774490 33.578163 5.933182
615 1 1 38.990808 33.324983 5.750133
616 1 1 38.938515 33.004333 5.553033
617 1 1 38.928977 32.849655 5.206070
618 1 1 38.853222 33.122126 4.952257
619 1 1 38.868010 33.405618 4.699644
620 1 1 38.998715 33.754307 4.623933
621 1 1 39.267334 33.995946 4.741639
622 1 1 39.356527 33.917224 5.102537
623 1 1 39.383135 33.945044 5.480582
624 1 1 39.434781 33.799580 5.827818
625 1 1 39.683081 33.644194 6.069897
626 1 1 39.656642 33.714938 6.442316
627 1 1 39.303400 33.833015 6.517668
628 1 1 39.323561 34.209789 6.562777
629 1 1 39.073657 34.495993 6.556857
630 1 1 38.881217 34.659068 6.841064
631 1 1 38.906334 35.036994 6.810387
632 1 1 38.791836 35.302059 6.563343
633 1 1 39.009254 35.498258 6.321195
634 1 1 39.113828 35.810135 6.511450
635 1 1 38.807550 36.034626 6.525490
636 1 1 38.487221 35.993277 6.325291
637 1 1 38.309127 36.245401 6.103670
638 1 1 38.126417 36.569716 6.180071
639 1 1 38.003766 36.881968 6.001591
640 1 1 38.301707 37.065632 5.853609
641 1 1 38.288206 37.249909 5.521555
642 1 1 37.946475 37.198974 5.363361
643 1 1 37.703040 36.914708 5.297540
644 1 1 37.732262 36.576463 5.468233
645 1 1 37.697946 36.300076 5.209713
646 1 1 37.711099 35.923908 5.157514
647 1 1 37.487685 35.624127 5.089561
648 1 1 37.165145 35.439409 5.168599
649 1 1 37.068523 35.190031 5.438553
650 1 1 37.294143 34.912296 5.566453
651 1 1 37.375143 34.773883 5.910954
652 1 1 37.719040 34.860272 6.047597
653 1 1 38.097710 34.879203 6.022083
654 1 1 38.423504 34.876787 6.217665
655 1 1 38.669552 34.691250 5.995322
656 1 1 38.590462 34.321521 6.033333
657 1 1 38.507866 34.110419 5.728351
658 1 1 38.252363 33.900062 5.541621
659 1 1 38.082560 33.583033 5.418905
660 1 1 38.176721 33.226267 5.509746
661 1 1 38.230253 32.895554 5.330405
662 1 1 37.989206 32.744781 5.078287
663 1 1 37.794167 32.971491 4.843847
664 1 1 37.814630 33.144861 4.506320
665 1 1 38.052101 33.361500 4.303651
666 1 1 38.000432 33.581927 3.998459
667 1 1 37.782665 33.466777 3.709119
668 1 1 37.847916 33.382820 3.344299
669 1 1 37.730760 33.366057 2.983198
670 1 1 37.580040 33.059803 2.816190
671 1 1 37.372479 32.830285 2.595645
672 1 1 37.435993 32.799314 2.222273
673 1 1 37.669261 32.505491 2.161824
674 1 1 37.890268 32.207502 2.079615
675 1 1 37.772572 31.924001 1.855617
676 1 1 37.637265 31.591481 1.731028
677 1 1 37.700818 31.228311 1.639005
678 1 1 37.563327 30.987364 1.898699
679 1 1 37.619193 30.883764 2.260011
680 1 1 37.967809 30.879909 2.411179
681 1 1 38.199360 30.699277 2.652335
682 1 1 38.477363 30.573657 2.878905
683 1 1 38.393061 30.375908 3.192255
684 1 1 38.709647 30.298970 3.387842
685 1 1 38.807720 30.436198 3.728356
686 1 1 39.049225 30.403143 4.019874
687 1 1 39.010535 30.483653 4.389226
688 1 1 39.039425 30.211713 4.653070
689 1 1 39.067146 29.839407 4.723922
690 1 1 38.944961 29.479707 4.714597
691 1 1 39.208676 29.208481 4.678673
692 1 1 39.345937 29.248358 4.326581
693 1 1 39.572958 29.096460 4.062406
694 1 1 39.898387 29.244210 3.933309
695 1 1 40.138456 29.523316 4.027474
696 1 1 40.235661 29.889847 4.052085
697 1 1 40.046585 30.144251 3.842492
698 1 1 39.775211 30.384151 3.727584
699 1 1 39.640203 30.677336 3.527047
700 1 1 39.747137 31.024513 3.415544
701 1 1 39.533038 31.270551 3.610549
702 1 1 39.192888 31.350231 3.760046
703 1 1 39.029170 31.657239 3.912828
704 1 1 39.272558 31.830273 4.147821
705 1 1 39.471698 32.135330 4.255912
706 1 1 39.818981 32.189203 4.111370
707 1 1 39.889467 31.933662 3.839101
708 1 1 39.733416 31.978743 3.495567
709 1 1 39.973438 32.009351 3.202560
710 1 1 40.261165 31.770721 3.134230
711 1 1 40.634142 31.770670 3.061512
712 1 1 0.292696 31.920550 3.097132
713 1 1 0.007713 31.669803 3.114748
714 1 1 0.011614 31.289823 3.114026
715 1 1 40.665317 30.936400 2.978901
716 1 1 40.401492 30.861805 3.242021
717 1 1 0.029747 30.761046 3.425630
718 1 1 0.014927 30.890537 3.782579
719 1 1 40.535275 31.226607 3.727125
720 1 1 0.068716 31.506642 3.855891
721 1 1 0.165828 31.656264 4.191424
722 1 1 0.179254 31.483126 4.529423
723 1 1 0.218568 31.337327 4.878131
724 1 1 0.175302 31.274038 5.250317
725 1 1 40.593578 31.312029 5.514445
726 1 1 40.264568 31.246807 5.335842
727 1 1 39.913365 31.283758 5.195518
728 1 1 39.835513 31.380232 4.836308
729 1 1 40.174585 31.427379 4.671362
730 1 1 40.466916 31.670022 4.679532
731 1 1 40.628903 31.968583 4.849890
732 1 1 40.348284 32.195528 4.968838
733 1 1 39.998338 32.305985 5.067514
734 1 1 39.858387 32.637476 4.945335
735 1 1 39.550457 32.707575 5.156675
736 1 1 39.566929 33.050943 5.318625
737 1 1 39.685095 33.331329 5.546265
738 1 1 40.044052 33.428390 5.624552
739 1 1 40.287595 33.495601 5.340704
740 1 1 40.219707 33.781217 5.099427
741 1 1 40.000129 33.813977 4.791024
742 1 1 40.069423 34.068393 4.517398
743 1 1 39.948690 34.427530 4.488340
744 1 1 39.891393 34.551425 4.133704
745 1 1 39.696545 34.442652 3.826129
746 1 1 39.321927 34.501432 3.850759
747 1 1 38.951503 34.418282 3.867242
748 1 1 38.783270 34.085926 3.942324
749 1 1 38.554919 33.958084 3.666802
750 1 1 38.609277 33.901622 3.294973
751 1 1 38.348381 33.712967 3.093125
752 1 1 38.111700 33.840315 2.824490
753 1 1 37.840284 33.998669 2.610815
754 1 1 37.868179 34.376053 2.576127
755 1 1 37.546528 34.514191 2.723971
756 1 1 37.201647 34.516946 2.564441
757 1 1 36.954500 34.589431 2.843840
758 1 1 36.764424 34.752897 3.129410
759 1 1 36.768117 35.045789 3.371485
760 1 1 36.441320 35.211675 3.471913
761 1 1 36.160790 35.460581 3.410689
762 1 1 35.832113 35.551179 3.578510
763 1 1 35.561824 35.815128 3.537587
764 1 1 35.258764 35.831243 3.308907
765 1 1 35.038110 35.995455 3.046712
766 1 1 34.988277 36.370260 3.008794
767 1 1 34.946502 36.727724 2.886836
768 1 1 34.797699 37.024593 2.702102
769 1 1 34.505152 37.235691 2.821492
770 1 1 34.440881 37.232689 3.196005
771 1 1 34.537107 37.570654 3.340644
772 1 1 34.674055 37.530512 3.692829
773 1 1 34.646277 37.185485 3.849625
774 1 1 34.322247 36.987284 3.860627
775 1 1 34.313920 36.665130 3.659263
776 1 1 33.984023 36.597563 3.483187
777 1 1 33.644811 36.701992 3.618942
778 1 1 33.419228 36.995702 3.704067
779 1 1 33.540619 37.178325 4.014411
780 1 1 33.740858 36.951587 4.244399
781 1 1 33.591446 36.645746 4.413329
782 1 1 33.522962 36.329710 4.213753
783 1 1 33.485076 35.957474 4.147383
784 1 1 33.228460 35.743718 3.966118
785 1 1 32.969401 35.465797 3.973096
786 1 1 32.672342 35.591419 4.174032
787 1 1 32.570329 35.589779 4.540079
788 1 1 32.341930 35.408970 4.784091
789 1 1 32.023506 35.203256 4.810315
790 1 1 32.039582 34.890582 5.025666
791 1 1 32.177947 34.964245 5.371830
792 1 1 32.255324 35.188396 5.668762
793 1 1 32.519387 35.239564 5.937189
794 1 1 32.717047 35.079139 6.219313
795 1 1 32.768223 34.714329 6.126067
796 1 1 33.117767 34.594468 6.214682
797 1 1 33.406359 34.393046 6.358014
798 1 1 33.634462 34.326744 6.061412
799 1 1 33.809904 34.060825 5.854272
800 1 1 33.945069 33.792821 6.087304
801 1 1 34.237657 33.566463 6.174222
802 1 1 34.541316 33.340074 6.204867
803 1 1 34.772201 33.262856 5.913096
804 1 1 34.837350 33.405688 5.567040
805 1 1 34.922275 33.208781 5.253328
806 1 1 34.917801 33.121809 4.883442