LAMMPS data file for polymer system

27000 atoms
26940 bonds

1 atom types
1 bond types

0.0 40.688818183822356 xlo xhi
0.0 40.688818183822356 ylo yhi
0.0 40.688818183822356 zlo zhi

Masses

1 5.65487

Atoms

1 1 1 9.987766 32.509497 10.191536
2 1 1 10.012647 32.342425 9.851143
3 1 1 10.083069 31.970497 9.817829
4 1 1 10.339064 31.763080 9.628501
5 1 1 10.286228 31.386774 9.630090
6 1 1 10.025799 31.110901 9.608400
7 1 1 9.747560 30.859710 9.546061
8 1 1 9.753354 30.481359 9.511181
9 1 1 9.479476 30.225652 9.447897
10 1 1 9.335274 30.274723 9.099762
11 1 1 9.430255 30.040127 8.816313
12 1 1 9.197597 29.799070 8.636976
13 1 1 8.863195 29.796645 8.817445
14 1 1 8.679745 29.834945 9.148020
15 1 1 8.564117 29.512322 9.312168
16 1 1 8.879494 29.302935 9.345250
17 1 1 8.879392 29.035100 9.075687
18 1 1 9.018446 28.738847 8.882560
19 1 1 8.751673 28.523584 8.718565
20 1 1 8.644446 28.207058 8.899434
21 1 1 8.818856 27.929011 9.090932
22 1 1 9.169222 28.037570 9.190223
23 1 1 9.505098 27.987160 9.360652
24 1 1 9.592670 28.054810 9.724183
25 1 1 9.658337 27.711588 9.873472
26 1 1 10.024049 27.618098 9.829722
27 1 1 10.397110 27.628872 9.758241
28 1 1 10.648828 27.593903 9.475726
29 1 1 10.826262 27.420127 9.188116
30 1 1 11.122587 27.496579 8.962847
31 1 1 11.392738 27.759675 8.915954
32 1 1 11.716706 27.577986 8.835744
33 1 1 11.803741 27.494286 8.475440
34 1 1 11.662539 27.594171 8.137084
35 1 1 11.797566 27.736883 7.811813
36 1 1 11.728549 27.593950 7.466550
37 1 1 11.416908 27.762792 7.329537
38 1 1 11.202575 27.758265 7.015784
39 1 1 10.995717 27.980702 6.787460
40 1 1 10.908776 28.293860 6.984369
41 1 1 10.566053 28.226594 7.134090
42 1 1 10.343789 27.921664 7.178991
43 1 1 10.274229 27.716932 7.491475
44 1 1 10.372141 27.881703 7.819597
45 1 1 10.593119 28.020286 8.095937
46 1 1 10.864803 28.284596 8.122919
47 1 1 10.804770 28.606712 7.930469
48 1 1 10.546970 28.885142 7.950867
49 1 1 10.726164 29.209828 7.867991
50 1 1 10.782919 29.532260 7.675074
51 1 1 10.620917 29.676185 7.362919
52 1 1 10.348608 29.896342 7.215344
53 1 1 10.343416 30.265935 7.303516
54 1 1 10.426403 30.578280 7.103633
55 1 1 10.789773 30.582725 6.992535
56 1 1 11.123915 30.734582 6.894105
57 1 1 11.157693 30.780451 6.518399
58 1 1 10.920057 30.666995 6.244435
59 1 1 10.986592 30.438001 5.948572
60 1 1 10.859121 30.232733 5.655287
61 1 1 10.794743 30.000782 5.361255
62 1 1 10.710615 29.948669 4.994367
63 1 1 10.913047 29.691912 4.800725
64 1 1 10.956861 29.801569 4.439539
65 1 1 11.200498 29.652675 4.188797
66 1 1 11.354623 29.348763 4.356973
67 1 1 11.713744 29.307077 4.473996
68 1 1 11.859645 29.188530 4.804237
69 1 1 11.928270 29.030689 5.143024
70 1 1 12.250924 28.832589 5.110606
71 1 1 12.440571 28.534512 4.970662
72 1 1 12.598837 28.291494 5.216210
73 1 1 12.587173 27.915404 5.163106
74 1 1 12.609738 27.560405 5.296773
75 1 1 12.295695 27.390492 5.426798
76 1 1 12.011606 27.623936 5.522702
77 1 1 11.869267 27.778257 5.839442
78 1 1 12.083675 28.012160 6.048533
79 1 1 11.921804 28.353109 6.092713
80 1 1 11.823643 28.447979 6.447345
81 1 1 11.689699 28.418217 6.801708
82 1 1 11.835403 28.206585 7.081677
83 1 1 12.028384 28.423171 7.327133
84 1 1 12.150157 28.555127 7.662034
85 1 1 12.394516 28.772946 7.855021
86 1 1 12.649162 28.895254 7.600864
87 1 1 12.994544 28.854341 7.447771
88 1 1 13.334575 29.013722 7.505879
89 1 1 13.546607 28.900963 7.211383
90 1 1 13.801213 29.172854 7.136207
91 1 1 13.651390 29.372383 6.849604
92 1 1 13.779914 29.406428 6.493623
93 1 1 14.102024 29.574032 6.381575
94 1 1 14.426129 29.386009 6.444848
95 1 1 14.695782 29.154823 6.309793
96 1 1 15.016976 29.078869 6.498115
97 1 1 15.316191 28.851615 6.441315
98 1 1 15.294434 28.480377 6.363154
99 1 1 15.581749 28.240075 6.427223
100 1 1 15.788744 27.953073 6.288721
101 1 1 15.875644 27.622161 6.123355
102 1 1 16.219569 27.528185 5.991886
103 1 1 16.531590 27.640096 6.177679
104 1 1 16.775028 27.373082 6.295327
105 1 1 17.107516 27.328928 6.116715
106 1 1 17.437930 27.326358 5.929046
107 1 1 17.392099 27.113658 5.617504
108 1 1 17.196303 26.866280 5.405682
109 1 1 17.133951 27.038979 5.072985
110 1 1 17.103494 27.023411 4.694527
111 1 1 17.428426 27.167235 4.559866
112 1 1 17.506200 27.095362 4.194921
113 1 1 17.869862 27.131449 4.090766
114 1 1 18.021027 26.942280 3.797911
115 1 1 17.913464 26.663295 3.563396
116 1 1 17.768577 26.366902 3.374826
117 1 1 17.390946 26.324614 3.377475
118 1 1 17.251761 25.973583 3.419957
119 1 1 17.381307 25.628059 3.510680
120 1 1 17.681966 25.497803 3.318227
121 1 1 18.018823 25.497278 3.142366
122 1 1 18.389763 25.572042 3.177210
123 1 1 18.602210 25.362771 2.941685
124 1 1 18.692037 25.350698 2.572652
125 1 1 18.751666 25.660241 2.360454
126 1 1 18.819527 26.015751 2.244665
127 1 1 19.142748 26.200641 2.168877
128 1 1 19.466305 26.142217 2.359396
129 1 1 19.754937 26.038760 2.134923
130 1 1 19.754906 26.296660 1.855840
131 1 1 19.680260 26.661422 1.931843
132 1 1 19.815049 26.987914 2.071968
133 1 1 19.865713 27.278811 1.832777
134 1 1 20.101133 27.217770 1.540798
135 1 1 20.126195 26.880274 1.367974
136 1 1 20.290069 26.736953 1.056518
137 1 1 20.512754 26.576957 0.793435
138 1 1 20.781290 26.361992 0.631948
139 1 1 21.131252 26.257376 0.736742
140 1 1 21.228960 26.470952 1.035470
141 1 1 21.026530 26.464666 1.357001
142 1 1 20.771933 26.325264 1.602251
143 1 1 20.558565 26.585359 1.778957
144 1 1 20.709056 26.872799 1.976771
145 1 1 21.078718 26.945111 2.026981
146 1 1 21.455925 26.903643 2.046855
147 1 1 21.573834 26.808305 1.698419
148 1 1 21.852179 26.550676 1.721901
149 1 1 22.196356 26.432531 1.612429
150 1 1 22.462401 26.675837 1.492335
151 1 1 22.692121 26.890033 1.278445
152 1 1 22.718572 27.255831 1.178987
153 1 1 22.449618 27.524275 1.180252
154 1 1 22.085940 27.452435 1.096717
155 1 1 21.747015 27.405076 0.931531
156 1 1 21.578430 27.065448 0.956683
157 1 1 21.803865 26.763823 1.007688
158 1 1 22.066225 26.555449 0.828391
159 1 1 21.958290 26.289119 0.579758
160 1 1 21.984656 26.237912 0.204148
161 1 1 22.348940 26.146752 0.145945
162 1 1 22.372275 26.396694 40.549484
163 1 1 22.611796 26.590576 40.327134
164 1 1 22.643809 26.730033 39.975101
165 1 1 22.655550 26.865022 39.620080
166 1 1 22.313854 26.982997 39.502924
167 1 1 22.170886 26.751018 39.238074
168 1 1 21.837365 26.797354 39.061958
169 1 1 21.689089 26.618665 38.761152
170 1 1 21.363572 26.524833 38.589006
171 1 1 21.122805 26.331866 38.367208
172 1 1 20.748217 26.392642 38.347455
173 1 1 20.487668 26.120056 38.300432
174 1 1 20.155711 26.092277 38.117586
175 1 1 19.776034 26.082490 38.105342
176 1 1 19.624127 26.306882 38.371748
177 1 1 19.621400 26.130097 38.708110
178 1 1 19.917370 25.953117 38.867735
179 1 1 20.134990 25.649566 38.937721
180 1 1 20.226332 25.335995 38.743479
181 1 1 20.013146 25.034083 38.831802
182 1 1 19.748345 25.148067 39.079367
183 1 1 19.792030 25.057901 39.445921
184 1 1 19.651516 25.275063 39.724303
185 1 1 19.793310 25.624172 39.675131
186 1 1 20.164059 25.677523 39.739152
187 1 1 20.535960 25.679472 39.817163
188 1 1 20.793565 25.714712 39.540039
189 1 1 20.758289 25.892175 39.205880
190 1 1 20.798446 26.253716 39.095991
191 1 1 20.705291 26.607615 39.198353
192 1 1 20.984549 26.727293 39.426591
193 1 1 21.127020 26.470898 39.668177
194 1 1 21.393930 26.369116 39.918775
195 1 1 21.550580 26.117748 40.156840
196 1 1 21.434105 25.787348 40.304045
197 1 1 21.388119 25.411644 40.337679
198 1 1 21.032745 25.282935 40.298390
199 1 1 20.743277 25.037047 40.286250
200 1 1 20.537213 24.720031 40.324180
201 1 1 20.195470 24.586295 40.225557
202 1 1 20.090046 24.635804 39.863847
203 1 1 20.349681 24.763475 39.617494
204 1 1 20.722299 24.777570 39.544300
205 1 1 20.938650 24.605664 39.805145
206 1 1 21.311025 24.537506 39.772098
207 1 1 21.373272 24.177429 39.876354
208 1 1 21.386618 23.946770 40.178047
209 1 1 21.411810 23.568874 40.209028
210 1 1 21.748042 23.444408 40.334949
211 1 1 22.121528 23.458499 40.266319
212 1 1 22.276393 23.190788 40.487107
213 1 1 22.229421 23.507241 0.003354
214 1 1 22.601824 23.548097 0.066969
215 1 1 22.710945 23.889997 0.191855
216 1 1 22.778039 24.178349 0.430081
217 1 1 23.053267 24.330190 0.643608
218 1 1 23.223103 24.654621 0.542117
219 1 1 23.165869 25.003513 0.402839
220 1 1 22.996814 25.241634 0.645982
221 1 1 22.974525 25.202990 1.023354
222 1 1 22.654333 25.063923 1.173479
223 1 1 22.740851 24.898356 1.504390
224 1 1 22.749388 25.029356 1.860994
225 1 1 22.952789 25.322332 1.992115
226 1 1 23.304315 25.436904 1.904350
227 1 1 23.583520 25.509090 1.656895
228 1 1 23.814939 25.299734 1.440066
229 1 1 24.154729 25.463312 1.393314
230 1 1 24.465911 25.264737 1.483502
231 1 1 24.393336 24.932231 1.652537
232 1 1 24.457377 24.569447 1.745738
233 1 1 24.461796 24.260999 1.523836
234 1 1 24.240088 24.021588 1.329085
235 1 1 24.036769 23.703648 1.373532
236 1 1 23.764122 23.464535 1.260004
237 1 1 23.441652 23.640238 1.162323
238 1 1 23.132834 23.435955 1.076883
239 1 1 22.874312 23.360352 1.344932
240 1 1 22.699556 23.036184 1.438609
241 1 1 22.439235 22.794153 1.304244
242 1 1 22.089199 22.788235 1.452026
243 1 1 21.930663 23.105652 1.588090
244 1 1 22.074318 23.432122 1.457016
245 1 1 22.114692 23.763607 1.275667
246 1 1 22.114600 24.143404 1.288108
247 1 1 22.331287 24.367179 1.505757
248 1 1 22.453869 24.245821 1.844351
249 1 1 22.414569 23.874300 1.913831
250 1 1 22.399893 23.680823 2.240559
251 1 1 22.172636 23.829254 2.506496
252 1 1 21.958906 23.826353 2.820680
253 1 1 21.593801 23.917746 2.768284
254 1 1 21.367793 24.133323 2.984725
255 1 1 21.062574 24.173808 3.207440
256 1 1 20.873986 23.848210 3.260556
257 1 1 20.666312 23.764693 2.953479
258 1 1 20.334204 23.653542 2.806002
259 1 1 20.091927 23.945691 2.824712
260 1 1 19.918900 24.184328 3.064534
261 1 1 20.111282 24.380437 3.327081
262 1 1 20.275581 24.722819 3.340486
263 1 1 20.544527 24.988381 3.301176
264 1 1 20.493457 25.333199 3.452479
265 1 1 20.795749 25.497892 3.613401
266 1 1 21.013733 25.257455 3.811069
267 1 1 21.038334 24.936050 4.012300
268 1 1 21.179788 24.640372 3.820037
269 1 1 21.477051 24.405939 3.787231
270 1 1 21.491498 24.026215 3.786331
271 1 1 21.499260 23.920793 4.151332
272 1 1 21.177527 23.837567 4.335619
273 1 1 21.028938 23.906852 4.678432
274 1 1 21.149571 23.778052 5.014970
275 1 1 21.158259 23.853728 5.387258
276 1 1 20.869847 23.958373 5.611462
277 1 1 20.731166 24.179568 5.887579
278 1 1 20.542789 24.199203 6.217016
279 1 1 20.585985 23.995246 6.534720
280 1 1 20.778848 23.673937 6.471757
281 1 1 20.981759 23.512608 6.193907
282 1 1 20.854723 23.166158 6.103164
283 1 1 21.015720 22.823011 6.076139
284 1 1 20.905317 22.487847 6.217124
285 1 1 21.035093 22.155568 6.086172
286 1 1 21.386895 22.114370 5.948554
287 1 1 21.464045 21.931956 5.624250
288 1 1 21.727507 21.672017 5.538115
289 1 1 21.946358 21.475302 5.297683
290 1 1 22.218873 21.302624 5.498476
291 1 1 22.303012 21.069042 5.786156
292 1 1 22.604411 20.837716 5.793029
293 1 1 22.904436 21.032807 5.665260
294 1 1 23.148896 20.981444 5.378902
295 1 1 23.099146 20.669727 5.167342
296 1 1 23.407841 20.549498 4.981192
297 1 1 23.682486 20.494546 5.238001
298 1 1 23.708587 20.529121 5.615523
299 1 1 23.605039 20.375254 5.947190
300 1 1 23.519150 20.005494 5.929844
301 1 1 23.730977 19.718739 6.061374
302 1 1 23.851660 19.382364 6.190554
303 1 1 24.206462 19.269885 6.113977
304 1 1 24.482432 19.457326 5.932025
305 1 1 24.794882 19.283252 5.803677
306 1 1 25.062861 19.018555 5.853905
307 1 1 25.261735 18.933222 5.541548
308 1 1 25.537779 18.838973 5.297996
309 1 1 25.744300 19.155299 5.256919
310 1 1 25.947182 19.100526 4.940314
311 1 1 26.181779 19.389984 4.865624
312 1 1 26.165325 19.682931 4.624146
313 1 1 26.511757 19.757290 4.486829
314 1 1 26.639287 19.909792 4.162979
315 1 1 26.817550 19.850497 3.832666
316 1 1 26.711184 19.502226 3.724068
317 1 1 26.358186 19.413216 3.833015
318 1 1 26.362161 19.048130 3.938355
319 1 1 26.726394 18.940175 3.947287
320 1 1 26.748342 18.589603 4.092263
321 1 1 27.030624 18.594477 4.346611
322 1 1 27.362924 18.440751 4.448322
323 1 1 27.409024 18.228868 4.760380
324 1 1 27.308861 17.864253 4.722652
325 1 1 27.588069 17.644088 4.856706
326 1 1 27.828058 17.871003 5.044628
327 1 1 28.147913 18.040801 5.159788
328 1 1 28.520350 18.114919 5.173829
329 1 1 28.679588 17.991260 4.851724
330 1 1 28.709871 18.035431 4.475517
331 1 1 28.534915 18.080712 4.141242
332 1 1 28.779771 17.943698 3.884975
333 1 1 29.125945 18.086024 3.950603
334 1 1 29.321912 18.400381 4.035317
335 1 1 29.550948 18.652340 4.204015
336 1 1 29.737701 18.579289 4.526795
337 1 1 29.925825 18.249783 4.505936
338 1 1 30.184594 18.266467 4.228159
339 1 1 30.430972 18.383466 3.963567
340 1 1 30.461265 18.749085 3.864547
341 1 1 30.153208 18.836393 3.659906
342 1 1 30.204080 18.973389 3.309129
343 1 1 30.348387 18.722466 3.062933
344 1 1 30.388211 18.529971 2.737725
345 1 1 30.211217 18.324979 2.471171
346 1 1 29.983686 18.020724 2.478838
347 1 1 29.662528 18.098695 2.291279
348 1 1 29.522934 17.901500 1.997974
349 1 1 29.181249 17.735574 1.987009
350 1 1 28.882161 17.948066 1.888045
351 1 1 28.807021 18.318605 1.926184
352 1 1 28.595592 18.604633 2.059922
353 1 1 28.670609 18.891096 2.298063
354 1 1 28.667826 19.264538 2.227823
355 1 1 28.632972 19.604699 2.393581
356 1 1 28.362251 19.657415 2.654984
357 1 1 28.347870 19.494172 2.997832
358 1 1 28.317743 19.575512 3.367800
359 1 1 27.969169 19.458733 3.464023
360 1 1 27.688708 19.407246 3.212845
361 1 1 27.402669 19.540848 3.001345
362 1 1 27.204813 19.513309 2.678089
363 1 1 27.051334 19.186376 2.559941
364 1 1 27.010348 18.935311 2.842229
365 1 1 27.072225 19.007471 3.210148
366 1 1 27.282712 19.069245 3.520437
367 1 1 27.580296 19.063154 3.756671
368 1 1 27.757518 18.926114 4.063612
369 1 1 28.086207 18.843276 4.235372
370 1 1 28.228815 18.532495 4.401136
371 1 1 28.430620 18.611082 4.713384
372 1 1 28.346830 18.844790 5.001065
373 1 1 28.534569 19.051418 5.258861
374 1 1 28.899484 18.947462 5.279594
375 1 1 29.234175 19.094429 5.383437
376 1 1 29.563179 19.029532 5.204706
377 1 1 29.858262 19.259899 5.139459
378 1 1 30.172792 19.355928 5.329852
379 1 1 30.199207 19.151785 5.649270
380 1 1 30.309559 19.114456 6.010973
381 1 1 30.476377 18.837939 6.211248
382 1 1 30.647507 18.831813 6.550478
383 1 1 30.517252 19.061699 6.823583
384 1 1 30.238269 18.911183 7.033139
385 1 1 29.945903 19.116030 7.163367
386 1 1 30.014236 19.462242 7.304322
387 1 1 30.296000 19.607073 7.094481
388 1 1 30.322639 19.825287 6.784525
389 1 1 30.629514 19.810663 6.560887
390 1 1 30.778950 19.658409 6.246423
391 1 1 31.121001 19.817421 6.200414
392 1 1 31.228007 20.045516 5.915945
393 1 1 31.299547 20.415021 5.968365
394 1 1 31.589588 20.556677 6.168888
395 1 1 31.906299 20.759642 6.115039
396 1 1 31.910243 21.120214 5.995156
397 1 1 31.875391 21.227214 5.632201
398 1 1 31.906490 20.932041 5.394913
399 1 1 32.152454 20.674050 5.263222
400 1 1 32.392952 20.406518 5.385646
401 1 1 32.591284 20.236562 5.661652
402 1 1 32.897908 20.111107 5.847777
403 1 1 32.820218 20.090117 6.219158
404 1 1 32.850946 20.437852 6.369276
405 1 1 32.942345 20.610210 6.695373
406 1 1 32.648217 20.836143 6.778093
407 1 1 32.273019 20.876882 6.822447
408 1 1 31.987438 21.080344 6.676000
409 1 1 31.620413 21.176575 6.696781
410 1 1 31.408757 21.399263 6.920415
411 1 1 31.506110 21.511002 7.270324
412 1 1 31.376403 21.846127 7.393886
413 1 1 31.071676 21.927053 7.181772
414 1 1 30.882186 21.601379 7.132475
415 1 1 30.805683 21.410672 6.812822
416 1 1 30.600457 21.161706 6.612078
417 1 1 30.765261 20.833339 6.515049
418 1 1 30.876739 20.491587 6.391851
419 1 1 31.135321 20.362900 6.638782
420 1 1 31.289079 20.384456 6.985616
421 1 1 31.032680 20.290046 7.249711
422 1 1 31.111993 20.024311 7.509509
423 1 1 31.160386 19.752145 7.770245
424 1 1 31.193470 19.409871 7.608523
425 1 1 31.428246 19.121335 7.686158
426 1 1 31.676623 19.068273 7.403504
427 1 1 31.932714 18.880134 7.195126
428 1 1 32.023993 18.654999 6.902924
429 1 1 32.189764 18.316835 6.852274
430 1 1 32.400387 18.002498 6.887341
431 1 1 32.770229 17.978804 6.971340
432 1 1 33.054633 18.219446 7.046211
433 1 1 33.382864 18.173947 6.860215
434 1 1 33.445133 18.015262 6.520595
435 1 1 33.464934 17.950490 6.146680
436 1 1 33.233120 18.014471 5.852454
437 1 1 33.149374 18.163095 5.512899
438 1 1 33.211373 18.532133 5.446820
439 1 1 33.544825 18.686037 5.544410
440 1 1 33.723396 18.529362 5.841000
441 1 1 33.867537 18.426132 6.177105
442 1 1 34.040808 18.201558 6.429975
443 1 1 34.292446 18.264997 6.707561
444 1 1 34.142087 18.515829 6.950203
445 1 1 34.119792 18.892741 6.993107
446 1 1 33.868226 19.040263 7.236729
447 1 1 33.634486 18.792879 7.405745
448 1 1 33.491607 18.579989 7.686215
449 1 1 33.478505 18.608735 8.064900
450 1 1 33.507360 18.324441 8.315389
451 1 1 0.278507 27.631712 16.807058
452 1 1 0.337242 27.480407 16.463463
453 1 1 40.687135 27.357090 16.343786
454 1 1 40.581713 26.998410 16.411865
455 1 1 40.513255 26.704562 16.180852
456 1 1 0.149713 26.724741 16.376269
457 1 1 0.256473 26.806071 16.731779
458 1 1 0.243903 27.013942 17.049634
459 1 1 0.049569 27.074062 17.370601
460 1 1 40.582685 26.948516 17.693704
461 1 1 40.482224 26.639285 17.890385
462 1 1 40.646235 26.301762 17.950203
463 1 1 0.157519 26.316407 18.272918
464 1 1 0.418253 26.513405 18.078985
465 1 1 0.572967 26.768380 18.314466
466 1 1 0.812085 27.037864 18.435300
467 1 1 1.159231 27.091745 18.290433
468 1 1 1.217792 27.287151 17.969829
469 1 1 0.935204 27.296758 17.715955
470 1 1 0.862196 27.014915 17.471753
471 1 1 0.762294 26.648863 17.492387
472 1 1 0.635170 26.526844 17.155711
473 1 1 0.641740 26.189424 16.981056
474 1 1 0.951006 25.987197 17.069706
475 1 1 1.129479 26.193185 17.334501
476 1 1 1.364363 26.484027 17.266382
477 1 1 1.339222 26.812990 17.077831
478 1 1 1.439030 27.178736 17.103676
479 1 1 1.339834 27.545468 17.111918
480 1 1 1.031265 27.650721 16.916708
481 1 1 0.828836 27.349995 16.802749
482 1 1 0.905505 27.123542 16.507383
483 1 1 0.843544 26.757346 16.587768
484 1 1 0.971667 26.502904 16.336286
485 1 1 1.105352 26.601196 15.994428
486 1 1 1.050512 26.292876 15.779180
487 1 1 0.939882 26.354873 15.420966
488 1 1 1.249754 26.330412 15.202376
489 1 1 1.422604 26.001400 15.123168
490 1 1 1.190694 25.700889 15.140805
491 1 1 1.005690 25.418056 15.314526
492 1 1 0.663000 25.256492 15.343857
493 1 1 0.391542 25.443183 15.533217
494 1 1 0.520476 25.773207 15.670550
495 1 1 0.258802 25.892033 15.919159
496 1 1 40.670699 25.645010 15.837341
497 1 1 40.525185 25.644826 16.188376
498 1 1 40.219833 25.439961 16.284245
499 1 1 39.884085 25.491835 16.114003
500 1 1 39.650912 25.321920 15.866700
501 1 1 39.292942 25.297512 15.741552
502 1 1 39.057361 25.257148 16.036971
503 1 1 39.090695 25.553221 16.272831
504 1 1 39.032071 25.854158 16.497330
505 1 1 39.081475 25.746604 16.858428
506 1 1 39.361855 25.691296 17.108884
507 1 1 39.418454 25.331186 17.216203
508 1 1 39.430145 25.063127 16.947117
509 1 1 39.348461 24.755810 16.739069
510 1 1 39.056029 24.548357 16.864952
511 1 1 39.125759 24.174815 16.866967
512 1 1 39.344391 23.909512 17.028876
513 1 1 39.703485 23.844433 16.922970
514 1 1 40.006433 23.947202 17.128057
515 1 1 40.302465 23.772566 17.290131
516 1 1 40.672182 23.740162 17.208526
517 1 1 0.070702 23.534658 17.516001
518 1 1 0.155617 23.734505 17.204150
519 1 1 0.501046 23.882252 17.261159
520 1 1 0.785826 23.735751 17.056617
521 1 1 0.884652 23.368840 17.059745
522 1 1 0.722985 23.170825 17.340911
523 1 1 0.416941 22.964801 17.249854
524 1 1 0.086490 22.839249 17.389276
525 1 1 40.427800 22.762354 17.522413
526 1 1 40.106518 22.802135 17.323429
527 1 1 39.982946 22.696784 16.979872
528 1 1 39.944071 22.618977 16.609960
529 1 1 39.666205 22.381809 16.505354
530 1 1 39.345425 22.582278 16.469131
531 1 1 39.041667 22.354496 16.453443
532 1 1 38.731967 22.138732 16.409493
533 1 1 38.472160 21.917914 16.577243
534 1 1 38.209059 22.086309 16.793625
535 1 1 38.312518 22.284584 17.100843
536 1 1 38.119208 22.198597 17.416498
537 1 1 37.921704 21.910959 17.567019
538 1 1 37.636556 21.674814 17.652614
539 1 1 37.582381 21.298774 17.660283
540 1 1 37.528142 20.928676 17.593309
541 1 1 37.168034 20.812394 17.558653
542 1 1 36.896848 20.860340 17.296815
543 1 1 36.556677 20.859828 17.466178
544 1 1 36.323856 20.633570 17.663666
545 1 1 36.391144 20.281784 17.536705
546 1 1 36.155229 20.147884 17.270595
547 1 1 35.833292 20.145049 17.068732
548 1 1 35.596488 20.107522 16.773917
549 1 1 35.760010 20.106300 16.430902
550 1 1 35.671987 20.175652 16.067801
551 1 1 35.479937 20.440714 15.874775
552 1 1 35.730397 20.594033 15.633605
553 1 1 35.565871 20.671252 15.299886
554 1 1 35.189140 20.671094 15.349617
555 1 1 35.040118 20.455397 15.074540
556 1 1 34.906891 20.128566 15.215367
557 1 1 34.830266 19.757110 15.238789
558 1 1 34.733701 19.533008 15.530086
559 1 1 35.049304 19.340972 15.619062
560 1 1 35.109571 19.049864 15.855756
561 1 1 35.455852 19.048180 16.012238
562 1 1 35.806457 19.129466 15.890299
563 1 1 35.892866 19.495011 15.832763
564 1 1 35.842477 19.735953 15.543266
565 1 1 36.112641 19.685865 15.280773
566 1 1 36.198315 19.661994 14.911327
567 1 1 36.136431 19.351009 14.701902
568 1 1 36.232321 18.989721 14.770284
569 1 1 36.356886 18.647073 14.663158
570 1 1 36.098465 18.428499 14.490402
571 1 1 35.756305 18.376588 14.333458
572 1 1 35.493064 18.321120 14.065079
573 1 1 35.320713 17.984717 14.025988
574 1 1 35.129882 17.665545 13.947803
575 1 1 34.982674 17.396997 14.172774
576 1 1 35.153777 17.381568 14.511722
577 1 1 35.368376 17.303432 14.815436
578 1 1 35.384174 16.973477 15.003266
579 1 1 35.257183 16.916706 15.356891
580 1 1 35.028113 17.172670 15.519400
581 1 1 34.714465 17.363765 15.421893
582 1 1 34.429045 17.446414 15.185029
583 1 1 34.078007 17.589918 15.209086
584 1 1 33.964404 17.527014 15.566210
585 1 1 34.060392 17.691692 15.894946
586 1 1 34.122407 18.056688 15.809320
587 1 1 33.935550 18.387450 15.800287
588 1 1 33.566295 18.424185 15.718427
589 1 1 33.197840 18.512761 15.746633
590 1 1 32.983958 18.739852 15.963622
591 1 1 32.676190 18.578329 16.117209
592 1 1 32.518005 18.765623 16.407551
593 1 1 32.456514 18.506564 16.678674
594 1 1 32.201567 18.227503 16.717751
595 1 1 31.942952 17.980833 16.588630
596 1 1 32.049850 17.616589 16.605916
597 1 1 32.387063 17.441411 16.605378
598 1 1 32.723291 17.325961 16.739623
599 1 1 33.088118 17.279118 16.835056
600 1 1 33.435192 17.232432 16.687544
601 1 1 33.719958 17.345917 16.462978
602 1 1 33.627543 17.701205 16.364846
603 1 1 33.631069 17.984728 16.617833
604 1 1 33.764115 18.303881 16.460226
605 1 1 34.107175 18.460580 16.413796
606 1 1 34.290752 18.710909 16.194627
607 1 1 34.365925 19.051886 16.344574
608 1 1 34.065675 19.153245 16.554279
609 1 1 33.700838 19.179141 16.657348
610 1 1 33.599807 19.377435 16.965362
611 1 1 33.704846 19.724834 17.077969
612 1 1 33.631163 19.944450 17.379200
613 1 1 33.883144 20.228875 17.381993
614 1 1 34.223147 20.293720 17.225172
615 1 1 34.558077 20.436623 17.333804
616 1 1 34.609088 20.357904 17.702045
617 1 1 34.622944 20.056527 17.933085
618 1 1 34.455712 19.721690 17.998793
619 1 1 34.082525 19.723543 17.927182
620 1 1 33.757487 19.854329 18.074305
621 1 1 33.633993 20.149301 18.279587
622 1 1 33.415437 20.214498 18.583532
623 1 1 33.551900 20.411323 18.878554
624 1 1 33.834622 20.456330 19.128438
625 1 1 34.212961 20.421046 19.124558
626 1 1 34.448348 20.271569 19.382723
627 1 1 34.802386 20.377338 19.294008
628 1 1 35.104366 20.209698 19.452452
629 1 1 35.309767 19.901001 19.369286
630 1 1 35.502275 19.622864 19.196137
631 1 1 35.414694 19.269004 19.088840
632 1 1 35.355411 18.986248 19.335689
633 1 1 35.206918 19.157353 19.640766
634 1 1 34.995052 19.461181 19.725629
635 1 1 34.946733 19.737549 19.981922
636 1 1 35.185729 19.857390 20.251957
637 1 1 35.232805 20.026318 20.589074
638 1 1 35.092504 19.919305 20.925621
639 1 1 34.904232 20.216257 21.069749
640 1 1 35.007743 20.348429 21.410654
641 1 1 35.192872 20.469184 21.719758
642 1 1 35.325133 20.704310 21.987383
643 1 1 35.127174 20.991393 22.138365
644 1 1 34.897326 21.287342 22.201486
645 1 1 35.041238 21.601458 22.043307
646 1 1 35.259081 21.715941 21.753760
647 1 1 35.429208 21.752682 21.415963
648 1 1 35.795042 21.661349 21.368804
649 1 1 36.038935 21.781439 21.103296
650 1 1 36.379054 21.848974 21.258725
651 1 1 36.452070 21.859338 21.631500
652 1 1 36.406037 21.835814 22.007967
653 1 1 36.203619 21.589197 22.214382
654 1 1 36.281652 21.341715 22.491985
655 1 1 35.957523 21.153973 22.555968
656 1 1 35.670224 21.333402 22.383734
657 1 1 35.523388 21.679200 22.440851
658 1 1 35.201976 21.825356 22.581324
659 1 1 35.094102 22.167047 22.707858
660 1 1 34.980410 22.136288 23.069144
661 1 1 34.805126 21.864375 23.268490
662 1 1 35.051638 21.657313 23.470376
663 1 1 35.332826 21.725681 23.716666
664 1 1 35.534662 22.042734 23.772699
665 1 1 35.901288 22.082378 23.864423
666 1 1 35.955174 22.140400 24.236081
667 1 1 36.267761 22.171143 24.449961
668 1 1 36.454582 21.893172 24.629488
669 1 1 36.734129 21.936656 24.883186
670 1 1 36.756699 22.000981 25.257021
671 1 1 36.723883 21.768960 25.556169
672 1 1 36.611973 21.410357 25.498897
673 1 1 36.438013 21.324767 25.172076
674 1 1 36.384190 20.948613 25.168680
675 1 1 36.539245 20.606709 25.109862
676 1 1 36.594601 20.534701 24.740876
677 1 1 36.820254 20.455659 24.445524
678 1 1 37.019870 20.769426 24.367398
679 1 1 37.055355 20.885573 24.007328
680 1 1 36.840628 21.093109 23.772336
681 1 1 36.633004 21.347670 23.963362
682 1 1 36.276825 21.478370 23.942067
683 1 1 35.900538 21.470973 23.994542
684 1 1 35.695158 21.321766 24.277308
685 1 1 35.603070 21.080749 24.556289
686 1 1 35.372731 20.779147 24.575783
687 1 1 34.994630 20.816925 24.572295
688 1 1 34.830243 21.157902 24.605634
689 1 1 34.455563 21.221053 24.610769
690 1 1 34.132962 21.020365 24.603485
691 1 1 34.001023 20.714899 24.419956
692 1 1 33.985893 20.422066 24.178253
693 1 1 33.819836 20.121628 24.015275
694 1 1 33.505711 19.908087 24.026482
695 1 1 33.612917 19.560467 23.916631
696 1 1 33.403140 19.332424 23.696653
697 1 1 33.266837 19.048031 23.908647
698 1 1 33.160977 18.824427 24.197083
699 1 1 33.101448 18.575261 24.477747
700 1 1 33.230026 18.219187 24.510606
701 1 1 33.294392 18.080932 24.162550
702 1 1 33.505439 17.985504 23.861298
703 1 1 33.382376 18.124740 23.529833
704 1 1 33.217280 18.328398 23.254758
705 1 1 33.184773 18.279821 22.879280
706 1 1 32.857075 18.204384 22.702296
707 1 1 32.550882 18.050476 22.538108
708 1 1 32.519220 17.714605 22.363213
709 1 1 32.467140 17.485612 22.064465
710 1 1 32.341252 17.195615 21.853625
711 1 1 32.259565 16.941177 21.583461
712 1 1 32.154456 16.785026 21.253356
713 1 1 31.844802 16.776040 21.033279
714 1 1 31.825016 16.469230 20.809950
715 1 1 32.099321 16.228830 20.703342
716 1 1 32.414308 16.017980 20.730272
717 1 1 32.614810 15.797801 20.966324
718 1 1 32.974174 15.781717 21.088793
719 1 1 32.991501 15.913493 21.444792
720 1 1 32.987626 15.641154 21.709776
721 1 1 33.307075 15.450494 21.787243
722 1 1 33.626833 15.625995 21.680686
723 1 1 33.850658 15.655951 21.375063
724 1 1 34.175933 15.812073 21.494319
725 1 1 34.377251 16.009707 21.239738
726 1 1 34.158243 16.218816 21.010153
727 1 1 33.927295 16.050492 20.759693
728 1 1 34.047328 15.968361 20.408628
729 1 1 34.274045 15.977979 20.103821
730 1 1 34.417676 15.634929 20.025804
731 1 1 34.651001 15.363068 19.899110
732 1 1 35.001390 15.425881 19.766136
733 1 1 34.994092 15.640590 19.452693
734 1 1 34.918712 15.994219 19.335797
735 1 1 35.053011 16.323672 19.202290
736 1 1 35.339177 16.490962 19.016487
737 1 1 35.702741 16.514724 18.908519
738 1 1 36.058278 16.384818 18.941951
739 1 1 36.370534 16.363464 19.157452
740 1 1 36.641497 16.431143 19.415131
741 1 1 37.011045 16.492082 19.479319
742 1 1 37.205363 16.727341 19.252838
743 1 1 37.376886 17.044821 19.133730
744 1 1 37.752283 17.086639 19.092159
745 1 1 38.123151 17.169013 19.083727
746 1 1 38.319442 17.199291 19.407692
747 1 1 38.466023 17.073879 19.735085
748 1 1 38.816121 16.926196 19.730511
749 1 1 39.036268 17.113503 19.483830
750 1 1 39.370044 17.206225 19.327637
751 1 1 39.633662 17.252578 19.057902
752 1 1 39.951938 17.243634 18.850488
753 1 1 39.977135 16.918286 18.655773
754 1 1 39.787874 16.615550 18.785893
755 1 1 39.449055 16.447959 18.824810
756 1 1 39.083247 16.353096 18.864628
757 1 1 38.731683 16.296922 18.731783
758 1 1 38.623885 16.604297 18.536079
759 1 1 38.333996 16.845807 18.490945
760 1 1 38.010255 16.888579 18.296619
761 1 1 37.649462 16.802600 18.213938
762 1 1 37.276080 16.780532 18.281010
763 1 1 37.175502 16.433912 18.399916
764 1 1 36.845607 16.474588 18.584075
765 1 1 36.520670 16.279531 18.556344
766 1 1 36.342254 16.010798 18.355471
767 1 1 36.475347 15.711140 18.163399
768 1 1 36.775632 15.480397 18.194811
769 1 1 37.125523 15.628630 18.196695
770 1 1 37.403764 15.510436 17.966451
771 1 1 37.629194 15.204760 17.978440
772 1 1 37.927101 14.970595 18.007046
773 1 1 38.140113 14.694727 17.855645
774 1 1 38.043123 14.629826 17.494008
775 1 1 38.356067 14.609164 17.279440
776 1 1 38.265662 14.449057 16.946886
777 1 1 38.418104 14.561682 16.617527
778 1 1 38.663964 14.383941 16.388703
779 1 1 38.766904 14.561055 16.068649
780 1 1 38.855160 14.556279 15.699071
781 1 1 38.620209 14.393768 15.448495
782 1 1 38.584056 14.514034 15.089846
783 1 1 38.338218 14.793954 15.014957
784 1 1 37.971372 14.854333 14.936356
785 1 1 37.716881 14.896292 14.657297
786 1 1 37.371486 14.893396 14.815709
787 1 1 37.039614 15.059335 14.897714
788 1 1 36.733143 15.068756 14.673245
789 1 1 36.405220 14.979264 14.843121
790 1 1 36.330642 15.207767 15.137441
791 1 1 36.617799 15.202693 15.386269
792 1 1 36.710952 14.913905 15.615013
793 1 1 36.885739 14.592517 15.717773
794 1 1 36.645506 14.328249 15.847582
795 1 1 36.603122 14.002159 16.038026
796 1 1 36.496668 13.716566 15.811080
797 1 1 36.176827 13.693258 15.607221
798 1 1 35.813390 13.644809 15.507391
799 1 1 35.551374 13.475198 15.724139