LAMMPS data file for polymer system

27000 atoms
26940 bonds

1 atom types
1 bond types

0.0 40.688818183822356 xlo xhi
0.0 40.688818183822356 ylo yhi
0.0 40.688818183822356 zlo zhi

Masses

1 5.65487

Atoms

1 1 1 17.091587 36.640124 3.114981
2 1 1 16.773000 36.497876 3.265540
3 1 1 16.509954 36.479342 3.539152
4 1 1 16.367374 36.127861 3.562213
5 1 1 16.161070 35.901954 3.787611
6 1 1 16.218833 35.598619 4.009087
7 1 1 16.506152 35.657473 4.250714
8 1 1 16.795026 35.846026 4.091339
9 1 1 16.869723 35.727167 3.738221
10 1 1 17.124179 35.782876 3.461546
11 1 1 17.128262 36.006627 3.154433
12 1 1 17.272335 35.801850 2.868585
13 1 1 17.407202 35.579275 2.591689
14 1 1 17.344174 35.698488 2.236420
15 1 1 17.025316 35.730263 2.032166
16 1 1 16.814226 35.989877 1.852051
17 1 1 16.706388 35.945115 1.490433
18 1 1 16.991635 35.782009 1.299565
19 1 1 17.088560 35.458223 1.125876
20 1 1 17.129634 35.336724 0.768174
21 1 1 17.260952 35.359650 0.412322
22 1 1 17.247773 35.024804 0.233144
23 1 1 17.488458 34.906102 40.652926
24 1 1 17.462042 35.284728 40.671484
25 1 1 17.675008 35.507246 40.448927
26 1 1 17.839797 35.719751 0.028598
27 1 1 17.551718 35.965706 0.058872
28 1 1 17.526226 36.162902 40.423864
29 1 1 17.278682 36.450958 40.435936
30 1 1 17.409153 36.798254 40.518174
31 1 1 17.756320 36.946364 40.562201
32 1 1 17.554398 36.669908 0.038304
33 1 1 17.705457 36.518176 0.352245
34 1 1 18.010944 36.356597 0.510262
35 1 1 18.262746 36.634446 0.571871
36 1 1 18.095398 36.965928 0.491161
37 1 1 18.260259 37.238292 0.283703
38 1 1 18.546446 37.478991 0.216171
39 1 1 18.863471 37.282852 0.289821
40 1 1 19.056312 37.203211 0.607421
41 1 1 19.266451 37.074180 0.896545
42 1 1 19.542499 36.854016 0.756099
43 1 1 19.763643 36.549017 0.706392
44 1 1 19.840807 36.463457 0.344280
45 1 1 19.649934 36.604624 0.047566
46 1 1 19.878649 36.897946 40.658591
47 1 1 19.973045 37.198152 0.182765
48 1 1 20.352525 37.214710 0.171793
49 1 1 20.636157 37.013352 0.324789
50 1 1 20.744651 37.188003 0.644360
51 1 1 21.069890 37.381492 0.609980
52 1 1 21.358793 37.245163 0.815770
53 1 1 21.423192 37.128630 1.171681
54 1 1 21.499102 36.756984 1.194408
55 1 1 21.818615 36.592291 1.071170
56 1 1 22.102050 36.580276 0.818345
57 1 1 22.263464 36.521173 0.479446
58 1 1 22.215063 36.229652 0.240546
59 1 1 22.295829 35.876906 0.124586
60 1 1 22.514625 35.684786 0.368755
61 1 1 22.802641 35.447715 0.296340
62 1 1 22.750420 35.298358 40.639664
63 1 1 22.458493 35.219511 40.409531
64 1 1 22.477017 35.456896 40.113380
65 1 1 22.705431 35.401004 39.814878
66 1 1 22.708135 35.562983 39.471141
67 1 1 22.707392 35.940243 39.425593
68 1 1 22.925809 36.156012 39.201679
69 1 1 22.853478 36.328093 38.870686
70 1 1 22.645967 36.173697 38.592296
71 1 1 22.307028 36.285307 38.461669
72 1 1 21.957375 36.401947 38.369267
73 1 1 21.712018 36.385196 38.658956
74 1 1 21.333873 36.409726 38.687316
75 1 1 21.077806 36.149711 38.793249
76 1 1 21.098142 35.819994 38.981062
77 1 1 21.169376 35.752928 39.348251
78 1 1 21.017393 35.879287 39.672803
79 1 1 21.090706 36.199315 39.864133
80 1 1 21.095421 36.548723 39.714828
81 1 1 21.244653 36.890403 39.641445
82 1 1 21.021042 37.148334 39.808386
83 1 1 21.007902 37.109064 40.186123
84 1 1 20.676837 37.228703 40.329241
85 1 1 20.535984 37.463331 40.592888
86 1 1 20.277087 37.709485 40.463348
87 1 1 20.061949 37.866859 0.045361
88 1 1 19.695781 37.797054 0.119172
89 1 1 19.371071 37.635420 0.232478
90 1 1 19.137479 37.531054 40.640329
91 1 1 19.489718 37.390321 40.617482
92 1 1 19.653465 37.461691 40.282082
93 1 1 19.774516 37.230621 40.005761
94 1 1 20.010821 37.030141 39.785835
95 1 1 20.212121 36.769255 39.596581
96 1 1 20.418247 36.510880 39.409085
97 1 1 20.560643 36.358379 39.091490
98 1 1 20.266857 36.283817 38.862296
99 1 1 20.104733 36.087328 38.580325
100 1 1 20.261336 36.070598 38.234498
101 1 1 20.605744 36.061159 38.074205
102 1 1 20.721216 36.423082 38.065356
103 1 1 20.556796 36.632667 37.794357
104 1 1 20.202869 36.508535 37.733308
105 1 1 19.917399 36.673321 37.922391
106 1 1 19.657632 36.777151 38.179569
107 1 1 19.313836 36.877655 38.052671
108 1 1 19.003840 36.662183 38.009379
109 1 1 18.701523 36.882104 38.077492
110 1 1 18.401927 36.916333 38.308729
111 1 1 18.456696 36.949453 38.683300
112 1 1 18.267989 37.020312 39.005432
113 1 1 18.156737 36.875763 39.338792
114 1 1 18.103047 37.061265 39.666063
115 1 1 17.927533 36.845006 39.924573
116 1 1 17.637523 36.617587 39.831971
117 1 1 17.456278 36.576511 39.500516
118 1 1 17.258733 36.399649 39.228310
119 1 1 17.262368 36.512284 38.865405
120 1 1 17.163434 36.217185 38.647394
121 1 1 17.225514 35.916512 38.423470
122 1 1 17.297326 35.734040 38.097975
123 1 1 17.516949 35.478853 37.921779
124 1 1 17.453365 35.184028 37.690618
125 1 1 17.701898 34.983189 37.484962
126 1 1 17.964896 34.773266 37.661497
127 1 1 17.991387 34.403156 37.743451
128 1 1 18.217329 34.152962 37.568084
129 1 1 18.182235 33.848751 37.343086
130 1 1 18.058938 33.710232 37.011408
131 1 1 18.282233 33.854257 36.739754
132 1 1 18.262934 33.921729 36.366291
133 1 1 18.033185 33.840754 36.074643
134 1 1 18.088466 33.764583 35.706482
135 1 1 17.818496 33.684103 35.451455
136 1 1 17.722418 33.592814 35.095316
137 1 1 17.684296 33.921736 34.908884
138 1 1 17.754454 34.192246 34.651392
139 1 1 18.120191 34.157158 34.554411
140 1 1 18.125679 34.043231 34.191933
141 1 1 18.001512 33.861118 33.882389
142 1 1 17.826461 33.978885 33.566339
143 1 1 17.797013 33.737891 33.274012
144 1 1 17.651287 33.387185 33.261000
145 1 1 17.411035 33.094627 33.293994
146 1 1 17.524478 32.817714 33.059794
147 1 1 17.720198 32.517728 32.932899
148 1 1 17.538766 32.216808 33.077569
149 1 1 17.231487 31.996620 33.116258
150 1 1 17.337381 31.633215 33.149773
151 1 1 17.549441 31.471430 32.879114
152 1 1 17.692252 31.566678 32.540097
153 1 1 18.004082 31.739879 32.409087
154 1 1 18.098176 32.059599 32.591640
155 1 1 17.959164 32.349363 32.388878
156 1 1 17.959162 32.456583 32.024318
157 1 1 17.663535 32.376485 31.799399
158 1 1 17.478249 32.668668 31.642242
159 1 1 17.324275 32.813277 31.326362
160 1 1 17.318148 32.683300 30.969335
161 1 1 17.253518 32.979846 30.740679
162 1 1 17.152640 33.265699 30.511526
163 1 1 16.850773 33.339613 30.292864
164 1 1 16.888617 33.317375 29.915408
165 1 1 17.111078 33.338608 29.608064
166 1 1 17.225098 33.365943 29.246606
167 1 1 17.309762 33.295318 28.882952
168 1 1 17.467266 33.245465 28.540743
169 1 1 17.468135 32.889655 28.407332
170 1 1 17.417904 32.560325 28.590140
171 1 1 17.247485 32.480645 28.920305
172 1 1 17.176575 32.648084 29.253975
173 1 1 17.367345 32.542263 29.565115
174 1 1 17.191470 32.384980 29.862991
175 1 1 16.818994 32.318705 29.898614
176 1 1 16.746126 32.129961 30.220275
177 1 1 16.884477 31.882215 30.473022
178 1 1 16.909610 31.925897 30.849665
179 1 1 16.894842 32.198397 31.114100
180 1 1 16.949334 32.204634 31.490120
181 1 1 16.977856 32.062214 31.841266
182 1 1 17.164689 31.743414 31.929924
183 1 1 16.985037 31.518694 32.178170
184 1 1 16.712158 31.567183 32.438142
185 1 1 16.580083 31.905904 32.548707
186 1 1 16.473211 31.960998 32.909183
187 1 1 16.607417 32.126676 33.223729
188 1 1 16.356119 32.308705 33.443079
189 1 1 16.059880 32.282637 33.679644
190 1 1 15.971144 32.631101 33.802521
191 1 1 15.749915 32.815145 33.554356
192 1 1 15.736579 32.642062 33.216325
193 1 1 15.667568 32.793901 32.874884
194 1 1 15.631729 33.060550 32.606529
195 1 1 15.753776 32.963481 32.260000
196 1 1 15.675027 32.594999 32.210816
197 1 1 15.636502 32.270887 32.016221
198 1 1 15.485553 32.135360 31.694900
199 1 1 15.210615 31.874320 31.669069
200 1 1 14.835316 31.823310 31.638268
201 1 1 14.722063 31.887015 31.281175
202 1 1 14.780718 31.575504 31.071604
203 1 1 14.709653 31.280663 31.300556
204 1 1 14.437076 31.244648 31.562861
205 1 1 14.350155 30.874934 31.575365
206 1 1 14.443939 30.552487 31.753220
207 1 1 14.425466 30.424270 32.110458
208 1 1 14.274991 30.587581 32.418819
209 1 1 14.011388 30.411408 32.628286
210 1 1 13.790258 30.230977 32.879178
211 1 1 13.578554 30.128253 33.177555
212 1 1 13.468510 29.799758 33.333700
213 1 1 13.478452 29.442053 33.205842
214 1 1 13.246532 29.250641 33.438167
215 1 1 13.013514 29.007666 33.261912
216 1 1 13.126484 28.680957 33.104116
217 1 1 13.275141 28.452308 32.839502
218 1 1 13.630843 28.425353 32.708546
219 1 1 13.929847 28.647090 32.784897
220 1 1 14.144787 28.707051 33.092477
221 1 1 14.360595 29.003421 33.192437
222 1 1 14.639952 28.957454 33.445907
223 1 1 14.858724 29.267419 33.467357
224 1 1 15.170010 29.358453 33.665383
225 1 1 15.502789 29.440846 33.829302
226 1 1 15.768222 29.708462 33.877538
227 1 1 16.130320 29.659826 33.982035
228 1 1 16.462992 29.838886 34.022866
229 1 1 16.833558 29.761087 34.054935
230 1 1 17.167620 29.934043 34.108681
231 1 1 17.350331 30.256615 34.192129
232 1 1 17.642246 30.305884 33.953888
233 1 1 17.572154 30.371448 33.586208
234 1 1 17.745781 30.682395 33.453673
235 1 1 18.079468 30.863990 33.444912
236 1 1 18.060735 31.243024 33.464448
237 1 1 18.408748 31.393168 33.437182
238 1 1 18.600767 31.235553 33.149629
239 1 1 18.842084 31.136792 32.873202
240 1 1 18.787340 31.155371 32.497625
241 1 1 18.595242 30.925042 32.264287
242 1 1 18.643646 30.560573 32.360306
243 1 1 18.866561 30.570606 32.667890
244 1 1 19.215715 30.430548 32.614273
245 1 1 19.380503 30.420755 32.272003
246 1 1 19.641604 30.339898 32.008016
247 1 1 19.972327 30.526166 31.989946
248 1 1 19.919900 30.893296 32.072814
249 1 1 19.741727 31.022668 32.382520
250 1 1 19.686896 30.915004 32.742800
251 1 1 19.992152 30.743936 32.890969
252 1 1 20.279368 30.973276 32.987457
253 1 1 20.457742 30.931936 33.320434
254 1 1 20.268164 30.732756 33.582708
255 1 1 20.163206 30.833086 33.933874
256 1 1 20.040997 30.676193 34.257679
257 1 1 19.896330 30.340148 34.154989
258 1 1 19.790997 30.018492 34.327739
259 1 1 20.061080 29.752699 34.299283
260 1 1 19.978517 29.436246 34.105786
261 1 1 19.721257 29.182415 34.223204
262 1 1 19.390302 29.313670 34.090385
263 1 1 19.444825 29.503996 33.766035
264 1 1 19.225895 29.345684 33.498814
265 1 1 18.999449 29.092113 33.668592
266 1 1 18.855656 28.747102 33.600107
267 1 1 18.912965 28.422285 33.788812
268 1 1 19.046332 28.171421 34.041162
269 1 1 19.346477 28.226639 34.267578
270 1 1 19.723867 28.190057 34.242305
271 1 1 20.003044 27.958105 34.129796
272 1 1 20.078399 27.586108 34.148241
273 1 1 20.117115 27.442540 34.497940
274 1 1 20.075665 27.432065 34.875527
275 1 1 20.110867 27.553551 35.233860
276 1 1 20.048538 27.898354 35.380917
277 1 1 20.283044 27.976422 35.669556
278 1 1 20.476344 27.678084 35.803830
279 1 1 20.386481 27.597533 36.164158
280 1 1 20.259976 27.832374 36.434798
281 1 1 20.024247 27.930944 36.716074
282 1 1 19.803958 27.660524 36.866890
283 1 1 19.427065 27.659652 36.818401
284 1 1 19.315029 27.408200 36.556447
285 1 1 19.348106 27.370991 36.179723
286 1 1 19.455566 27.616748 35.910546
287 1 1 19.137644 27.730898 35.736490
288 1 1 18.899574 27.906259 35.497804
289 1 1 18.590265 27.880637 35.278553
290 1 1 18.606407 28.148714 35.009714
291 1 1 18.455439 28.176484 34.662097
292 1 1 18.120194 28.120760 34.492080
293 1 1 17.987552 27.801813 34.333718
294 1 1 18.030304 27.427281 34.285779
295 1 1 18.072780 27.237913 33.959075
296 1 1 18.130654 27.166354 33.590389
297 1 1 18.035672 26.996413 33.264047
298 1 1 18.244273 27.076407 32.956660
299 1 1 18.541135 27.303574 32.888336
300 1 1 18.836072 27.470275 32.716224
301 1 1 18.728523 27.707754 32.439751
302 1 1 18.861078 28.063614 32.425874
303 1 1 19.108043 28.280862 32.616167
304 1 1 19.247711 28.429000 32.937022
305 1 1 19.485704 28.323168 33.213715
306 1 1 19.844744 28.206374 33.256719
307 1 1 20.151695 28.348195 33.083318
308 1 1 20.523229 28.313738 33.155257
309 1 1 20.877665 28.176791 33.159782
310 1 1 21.092417 28.117844 33.467689
311 1 1 20.948243 27.987851 33.794363
312 1 1 20.624351 27.793647 33.752191
313 1 1 20.646800 27.438932 33.617753
314 1 1 20.388837 27.289341 33.382216
315 1 1 20.190612 26.977492 33.470857
316 1 1 20.122748 26.629795 33.333374
317 1 1 19.933946 26.378170 33.120211
318 1 1 19.994252 26.003129 33.130577
319 1 1 20.034135 25.693824 32.913459
320 1 1 19.891481 25.614235 32.570362
321 1 1 19.603151 25.655604 32.326325
322 1 1 19.446953 25.906933 32.087922
323 1 1 19.126891 25.850244 31.891081
324 1 1 18.920502 25.568065 31.742154
325 1 1 18.653514 25.495972 31.481540
326 1 1 18.355404 25.288869 31.593965
327 1 1 18.371199 25.007042 31.848374
328 1 1 18.248509 25.025488 32.207549
329 1 1 18.049112 24.726667 32.331434
330 1 1 17.829691 24.466689 32.162125
331 1 1 17.818298 24.349912 31.800693
332 1 1 18.121629 24.459933 31.599980
333 1 1 18.299789 24.151094 31.468538
334 1 1 18.218210 23.998026 31.130432
335 1 1 18.258100 24.272102 30.870257
336 1 1 18.393296 24.587012 30.706080
337 1 1 18.216509 24.910479 30.798358
338 1 1 17.994685 25.045329 31.075864
339 1 1 17.721782 25.263709 31.224975
340 1 1 17.481079 25.405385 30.967313
341 1 1 17.228361 25.511759 30.704219
342 1 1 16.964454 25.735247 30.546719
343 1 1 16.915713 26.049460 30.754791
344 1 1 16.769677 26.051268 31.105605
345 1 1 16.950796 25.854549 31.375600
346 1 1 17.039718 25.902541 31.741919
347 1 1 16.728403 25.899526 31.959804
348 1 1 16.384413 26.060139 31.976373
349 1 1 16.183380 26.382243 31.961069
350 1 1 16.002200 26.679272 31.808268
351 1 1 15.724623 26.896257 31.950636
352 1 1 15.843490 27.253264 31.897567
353 1 1 15.773863 27.540122 32.136868
354 1 1 15.582977 27.863644 32.194275
355 1 1 15.392114 28.192188 32.188795
356 1 1 15.244846 28.240572 31.841850
357 1 1 15.485658 28.366729 31.576343
358 1 1 15.558843 28.362859 31.203477
359 1 1 15.440227 28.531796 30.884430
360 1 1 15.616494 28.612078 30.557498
361 1 1 15.823147 28.912787 30.451343
362 1 1 16.070483 28.854987 30.168705
363 1 1 16.207674 29.111910 29.924638
364 1 1 16.377555 29.406734 30.093811
365 1 1 16.224622 29.750862 30.042950
366 1 1 16.274034 30.112714 29.937965
367 1 1 16.566313 30.308609 29.794443
368 1 1 16.827037 30.177562 29.551031
369 1 1 17.167509 30.203116 29.384219
370 1 1 17.111311 30.319208 29.026778
371 1 1 16.763322 30.471316 29.013863
372 1 1 16.471060 30.248804 28.916541
373 1 1 16.237522 30.015311 29.104533
374 1 1 16.134948 29.650889 29.137319
375 1 1 16.360966 29.443490 29.361600
376 1 1 16.696877 29.271609 29.316653
377 1 1 16.649909 28.925755 29.166390
378 1 1 16.714551 28.810632 28.810064
379 1 1 16.648706 28.465143 28.666184
380 1 1 16.820669 28.147483 28.548197
381 1 1 16.988522 27.897184 28.316733
382 1 1 17.043600 27.876481 27.941316
383 1 1 17.204106 28.203143 27.832093
384 1 1 17.287800 28.388814 27.511279
385 1 1 17.441327 28.653905 27.286432
386 1 1 17.278484 28.967911 27.147569
387 1 1 17.083318 29.270914 27.267980
388 1 1 17.287882 29.587920 27.222578
389 1 1 17.489517 29.790672 27.472847
390 1 1 17.707928 30.100937 27.493632
391 1 1 17.885829 30.070889 27.828069
392 1 1 18.062735 29.797972 28.024590
393 1 1 18.434405 29.876499 28.014865
394 1 1 18.629886 30.054887 28.287564
395 1 1 18.994476 30.060084 28.394557
396 1 1 19.371700 30.014496 28.399396
397 1 1 19.715771 29.859646 28.444521
398 1 1 19.827206 29.602535 28.187857
399 1 1 19.691037 29.325820 27.965851
400 1 1 19.338556 29.351646 27.826243
401 1 1 19.210430 29.099670 27.572292
402 1 1 19.004440 28.811795 27.710480
403 1 1 18.821958 28.551492 27.918669
404 1 1 18.857494 28.347825 28.237506
405 1 1 19.214870 28.288306 28.352136
406 1 1 19.425758 28.558309 28.187742
407 1 1 19.393091 28.891623 28.367281
408 1 1 19.562626 29.120758 28.618588
409 1 1 19.647826 29.042326 28.980513
410 1 1 19.712065 29.367185 29.166899
411 1 1 19.873452 29.425848 29.505888
412 1 1 20.252256 29.434903 29.477153
413 1 1 20.419901 29.506932 29.810480
414 1 1 20.708495 29.262112 29.844790
415 1 1 20.820659 28.957831 29.646719
416 1 1 20.600521 28.648958 29.669885
417 1 1 20.466215 28.300952 29.742369
418 1 1 20.287121 27.986155 29.857384
419 1 1 19.913773 28.000144 29.926779
420 1 1 19.584405 28.125919 30.068543
421 1 1 19.228365 28.031576 29.975082
422 1 1 18.905906 28.232499 29.982138
423 1 1 18.760444 28.441710 29.700231
424 1 1 18.596507 28.773031 29.788271
425 1 1 18.292449 28.992521 29.849694
426 1 1 18.260159 29.125842 30.204071
427 1 1 17.975181 29.129414 30.455416
428 1 1 17.604097 29.049933 30.435939
429 1 1 17.260841 28.890731 30.471015
430 1 1 17.033602 28.832957 30.171976
431 1 1 16.997739 28.624712 29.856147
432 1 1 16.801104 28.414210 29.608308
433 1 1 16.710269 28.055754 29.695819
434 1 1 16.383794 27.927252 29.841767
435 1 1 16.169639 27.877285 30.151672
436 1 1 16.041178 28.077151 30.448238
437 1 1 15.749997 28.026222 30.687027
438 1 1 15.458212 27.799047 30.774509
439 1 1 15.101160 27.792663 30.644611
440 1 1 14.731000 27.707833 30.631019
441 1 1 14.585745 27.376403 30.747014
442 1 1 14.734570 27.137924 31.002707
443 1 1 15.051059 26.983937 30.859449
444 1 1 15.104012 26.624506 30.748071
445 1 1 15.420131 26.428386 30.825566
446 1 1 15.504593 26.187640 31.107183
447 1 1 15.315123 25.875621 31.212751
448 1 1 15.131986 25.583379 31.372298
449 1 1 14.924240 25.292136 31.244162
450 1 1 15.003629 25.010862 31.001299
451 1 1 9.939291 6.122040 1.047266
452 1 1 10.037546 5.908276 1.345680
453 1 1 10.242053 5.773698 1.636309
454 1 1 10.520624 5.912579 1.854278
455 1 1 10.343717 6.144003 2.098299
456 1 1 10.170592 5.992598 2.400796
457 1 1 10.336155 5.877289 2.722810
458 1 1 10.551736 5.893631 3.035313
459 1 1 10.716338 5.604632 3.219122
460 1 1 10.722906 5.322550 3.473654
461 1 1 10.789047 4.952065 3.421060
462 1 1 10.928638 4.609599 3.333701
463 1 1 11.088962 4.276876 3.244306
464 1 1 11.466145 4.309930 3.276564
465 1 1 11.688687 4.014941 3.365205
466 1 1 11.943722 3.759608 3.484209
467 1 1 12.312797 3.771942 3.394590
468 1 1 12.560123 3.483992 3.376851
469 1 1 12.827140 3.494070 3.106665
470 1 1 12.800094 3.804424 2.889068
471 1 1 12.676937 3.918635 2.548204
472 1 1 12.431555 3.653314 2.430763
473 1 1 12.619241 3.331496 2.355882
474 1 1 12.660248 3.260213 1.984887
475 1 1 12.827598 3.428034 1.687852
476 1 1 13.101346 3.551472 1.454988
477 1 1 13.350451 3.616126 1.175406
478 1 1 13.426487 3.952793 1.016429
479 1 1 13.390686 4.301320 0.869298
480 1 1 13.076984 4.509513 0.920742
481 1 1 12.738983 4.337180 0.942102
482 1 1 12.457495 4.546123 1.088757
483 1 1 12.484012 4.678472 1.443976
484 1 1 12.767542 4.601501 1.684988
485 1 1 12.918760 4.438711 1.993261
486 1 1 13.060782 4.110404 2.121498
487 1 1 13.251530 3.901314 2.375065
488 1 1 13.456536 3.616762 2.228769
489 1 1 13.645494 3.332496 2.061774
490 1 1 13.922561 3.303526 1.803327
491 1 1 14.253019 3.227219 1.974718
492 1 1 14.580113 3.302235 1.796441
493 1 1 14.700448 3.164302 1.463434
494 1 1 14.839422 3.331551 1.151803
495 1 1 15.207893 3.356299 1.062265
496 1 1 15.393390 3.418660 1.387998
497 1 1 15.764361 3.453458 1.462628
498 1 1 16.030446 3.394598 1.197799
499 1 1 16.324754 3.632198 1.161348
500 1 1 16.435272 3.884062 1.423551
501 1 1 16.536235 3.832952 1.786311
502 1 1 16.493184 3.718887 2.146221
503 1 1 16.513304 3.344207 2.206309
504 1 1 16.189918 3.203359 2.064947
505 1 1 15.850695 3.242309 2.231711
506 1 1 15.739593 3.605688 2.228261
507 1 1 15.762933 3.980030 2.289280
508 1 1 16.027363 4.120772 2.055467
509 1 1 15.944840 4.488559 2.007272
510 1 1 15.909001 4.778798 2.249917
511 1 1 16.103838 5.097330 2.320458
512 1 1 16.142432 5.154850 2.694091
513 1 1 16.499241 5.132237 2.822840
514 1 1 16.849432 5.131385 2.675309
515 1 1 17.029342 5.465741 2.659855
516 1 1 16.766219 5.724398 2.568955
517 1 1 16.705044 5.992365 2.306559
518 1 1 16.775985 6.349428 2.197595
519 1 1 17.010010 6.377645 1.899541
520 1 1 16.900309 6.350021 1.536770
521 1 1 17.061550 6.586714 1.287014
522 1 1 17.170077 6.942277 1.365733
523 1 1 17.421016 7.226215 1.337300
524 1 1 17.726352 7.443593 1.399885
525 1 1 17.992010 7.471668 1.129629
526 1 1 18.311685 7.448105 0.925540
527 1 1 18.582118 7.187350 0.868332
528 1 1 18.561414 6.827818 0.747055
529 1 1 18.265357 6.602417 0.669953
530 1 1 18.058634 6.489475 0.371776
531 1 1 17.687363 6.569199 0.385997
532 1 1 17.494648 6.354787 0.138431
533 1 1 17.597701 6.688511 40.677554
534 1 1 17.369757 6.766293 40.383629
535 1 1 17.275276 6.495147 40.134725
536 1 1 17.176490 6.173961 39.957297
537 1 1 16.883419 6.150706 39.716531
538 1 1 16.989820 6.316066 39.391362
539 1 1 17.352187 6.324930 39.277294
540 1 1 17.615897 6.136494 39.078929
541 1 1 17.966913 6.027128 38.982872
542 1 1 18.136362 5.766837 38.763930
543 1 1 17.966906 5.678411 38.435501
544 1 1 18.108406 5.412109 38.204285
545 1 1 18.317737 5.113047 38.309841
546 1 1 18.409311 5.182586 38.672027
547 1 1 18.741924 5.304638 38.809400
548 1 1 18.670921 5.486294 39.135528
549 1 1 18.768391 5.240569 39.408509
550 1 1 18.788283 5.340869 39.774493
551 1 1 19.079926 5.210037 39.979986
552 1 1 19.105946 4.833517 40.024214
553 1 1 18.874493 4.609696 40.226040
554 1 1 18.732379 4.357504 39.979863
555 1 1 19.029851 4.213966 39.791961
556 1 1 19.351465 4.017186 39.744609
557 1 1 19.576553 3.714975 39.793643
558 1 1 19.451361 3.363108 39.723527
559 1 1 19.073477 3.323122 39.721307
560 1 1 18.783200 3.230903 39.948541
561 1 1 18.908569 3.027396 40.243951
562 1 1 19.273042 2.926325 40.280617
563 1 1 19.582776 2.790275 40.107542
564 1 1 19.958100 2.799441 40.048820
565 1 1 20.128900 2.467898 39.975973
566 1 1 20.092902 2.112997 39.845019
567 1 1 20.097505 2.141656 39.466129
568 1 1 20.044052 2.141075 39.089908
569 1 1 19.804867 2.002780 38.829016
570 1 1 19.542727 1.727910 38.840391
571 1 1 19.612552 1.417254 39.047797
572 1 1 19.678784 1.337961 39.413482
573 1 1 19.804933 1.240636 39.758467
574 1 1 20.030526 1.416434 40.008673
575 1 1 20.367930 1.241733 40.014864
576 1 1 20.631275 1.025821 40.183478
577 1 1 20.781209 0.681575 40.125046
578 1 1 20.729392 0.526509 39.782016
579 1 1 20.651860 0.157230 39.737051
580 1 1 20.420568 40.593806 39.902211
581 1 1 20.511644 40.247506 39.775003
582 1 1 20.189168 40.105633 39.632590
583 1 1 19.911073 39.949155 39.426246
584 1 1 19.613694 40.150588 39.302188
585 1 1 19.505801 40.479080 39.459833
586 1 1 19.590544 40.656271 39.785136
587 1 1 19.735914 40.660021 40.136210
588 1 1 19.797798 0.131704 40.475046
589 1 1 19.425320 0.066370 40.512357
590 1 1 19.223691 0.144176 40.199800
591 1 1 18.879713 0.095958 40.045676
592 1 1 18.690884 40.595939 39.775335
593 1 1 18.411842 40.418494 39.588122
594 1 1 18.313815 0.096452 39.571805
595 1 1 18.044193 0.229799 39.804017
596 1 1 17.808307 0.523020 39.751298
597 1 1 17.806617 0.729638 39.432384
598 1 1 18.139388 0.912880 39.423119
599 1 1 18.489141 0.764394 39.418174
600 1 1 18.785955 0.980994 39.321293
601 1 1 19.006803 1.290200 39.325509
602 1 1 18.973840 1.627893 39.496614
603 1 1 19.206759 1.690523 39.790257
604 1 1 19.145445 1.466859 40.091281
605 1 1 19.199804 1.515878 40.464165
606 1 1 19.288927 1.280852 0.060338
607 1 1 19.563328 1.062280 0.206387
608 1 1 19.520589 0.788666 40.634996
609 1 1 19.170707 0.855421 40.502607
610 1 1 18.913702 0.723574 40.255697
611 1 1 18.539935 0.655033 40.255118
612 1 1 18.359501 0.422135 40.495122
613 1 1 17.983184 0.443353 40.543444
614 1 1 18.075992 0.520451 0.214963
615 1 1 17.821053 0.238857 0.204426
616 1 1 17.520760 0.385732 0.023729
617 1 1 17.332852 0.333717 40.386379
618 1 1 17.111581 0.641016 40.354653
619 1 1 16.875694 0.747440 40.632917
620 1 1 16.869465 0.804930 0.319673
621 1 1 16.590304 0.550633 0.362129
622 1 1 16.454530 0.246906 0.545748
623 1 1 16.444890 40.571247 0.438681
624 1 1 16.694942 40.588002 0.724327
625 1 1 17.060477 40.487364 0.749940
626 1 1 17.293229 0.088043 0.669828
627 1 1 16.975724 0.094623 0.878507
628 1 1 16.855043 0.094961 1.238835
629 1 1 16.885417 0.353253 1.515896
630 1 1 17.165503 0.286657 1.763922
631 1 1 17.500525 0.343782 1.933912
632 1 1 17.838908 0.463964 2.058224
633 1 1 18.116055 0.622587 1.852243
634 1 1 18.231192 0.975040 1.769055
635 1 1 17.998239 1.194955 1.564678
636 1 1 17.717735 1.395566 1.724278
637 1 1 17.434839 1.621305 1.840088
638 1 1 17.310186 1.877712 2.091319
639 1 1 17.463665 2.002003 2.415966
640 1 1 17.191520 2.116341 2.655265
641 1 1 16.935366 1.917878 2.853754
642 1 1 16.598302 2.090070 2.820029
643 1 1 16.329570 2.000499 3.073327
644 1 1 16.271123 2.119636 3.429403
645 1 1 15.968833 2.099782 3.658809
646 1 1 15.871534 1.898492 3.966079
647 1 1 16.021909 1.708518 4.258820
648 1 1 16.123638 1.592003 4.605916
649 1 1 16.298634 1.266348 4.693807
650 1 1 16.499620 0.971533 4.824532
651 1 1 16.396620 0.877665 5.178057
652 1 1 16.406378 1.192988 5.389897
653 1 1 16.085178 1.382048 5.315821
654 1 1 15.794505 1.155484 5.408440
655 1 1 15.557207 0.965780 5.636697
656 1 1 15.242932 1.163707 5.717050
657 1 1 15.038732 0.985268 5.983249
658 1 1 14.930113 1.211430 6.268647
659 1 1 14.877672 1.442067 6.566064
660 1 1 14.851749 1.279210 6.908417
661 1 1 14.958494 0.914535 6.904271
662 1 1 14.961345 0.536389 6.866881
663 1 1 14.836740 0.180223 6.911819
664 1 1 14.613126 40.639339 7.115861
665 1 1 14.814688 40.545501 6.807693
666 1 1 14.870345 40.381134 6.469631
667 1 1 14.571833 40.340882 6.237963
668 1 1 14.441897 40.570235 5.964259
669 1 1 14.113853 0.063222 5.903151
670 1 1 13.902105 0.186009 5.612486
671 1 1 14.084591 0.109471 5.288078
672 1 1 14.103997 0.404674 5.049586
673 1 1 14.392823 0.571604 4.867614
674 1 1 14.362401 0.549212 4.489496
675 1 1 14.066744 0.736659 4.341678
676 1 1 13.759556 0.941853 4.252619
677 1 1 13.525170 0.737674 4.034047
678 1 1 13.157639 0.767228 3.942137
679 1 1 12.858920 0.564169 3.824093
680 1 1 12.794045 0.215693 3.961042
681 1 1 12.814207 40.642806 4.235823
682 1 1 13.143074 40.671745 4.047649
683 1 1 13.467086 0.083461 4.218847
684 1 1 13.813558 40.622400 4.262361
685 1 1 13.682612 40.678462 4.614654
686 1 1 13.678889 40.479300 4.938259
687 1 1 13.393324 40.557277 5.176529
688 1 1 13.055001 40.633973 5.021432
689 1 1 13.194565 0.240317 5.215857
690 1 1 12.923962 0.049900 5.402714
691 1 1 12.545684 0.045439 5.438568
692 1 1 12.341480 0.302487 5.247186
693 1 1 12.067614 0.225811 4.995158
694 1 1 12.013477 0.530379 4.774461
695 1 1 11.843424 0.616696 4.445780
696 1 1 11.631474 0.930373 4.478707
697 1 1 11.729904 1.243829 4.669643
698 1 1 11.715965 1.611249 4.573681
699 1 1 11.945055 1.843339 4.378612
700 1 1 11.927994 1.851187 3.999076
701 1 1 11.914956 2.208071 3.869214
702 1 1 12.063415 2.286887 3.528409
703 1 1 12.054656 2.628992 3.363220
704 1 1 12.258183 2.949112 3.385579
705 1 1 12.442456 2.937828 3.717718
706 1 1 12.608188 2.682361 3.945028
707 1 1 12.953921 2.545651 4.023633
708 1 1 13.224344 2.713754 4.231029
709 1 1 13.466031 2.435841 4.324578
710 1 1 13.722207 2.329770 4.064726
711 1 1 13.832385 2.510120 3.748918
712 1 1 14.147866 2.642700 3.583710
713 1 1 14.186098 3.019580 3.613717
714 1 1 14.128066 3.367812 3.473124
715 1 1 14.361455 3.650387 3.573530
716 1 1 14.258169 4.010276 3.508628
717 1 1 14.399341 4.359148 3.561147
718 1 1 14.304464 4.663999 3.355078
719 1 1 14.621616 4.836774 3.236910
720 1 1 14.678602 4.911462 2.868705
721 1 1 14.761689 4.621225 2.637925
722 1 1 15.073755 4.570021 2.427230
723 1 1 15.177146 4.204761 2.410031
724 1 1 15.013764 3.998490 2.135880
725 1 1 14.748913 3.751147 2.250230
726 1 1 14.463339 3.705414 2.496717
727 1 1 14.439240 3.783242 2.867881
728 1 1 14.733618 3.661237 3.074897
729 1 1 15.098131 3.732131 2.994248
730 1 1 15.242391 3.592254 2.671721
731 1 1 15.279020 3.216477 2.714737
732 1 1 14.988936 3.058469 2.526895
733 1 1 15.005727 2.679519 2.504210
734 1 1 14.787889 2.406914 2.353766
735 1 1 14.632286 2.085105 2.224824
736 1 1 14.326088 1.978703 2.026527
737 1 1 14.205562 2.055101 1.674339
738 1 1 13.890373 1.848819 1.624305
739 1 1 13.594920 2.053912 1.501650
740 1 1 13.575640 2.387804 1.321249
741 1 1 13.828255 2.625899 1.475835
742 1 1 14.207468 2.650061 1.472214
743 1 1 14.321100 2.408090 1.202143
744 1 1 14.371642 2.528558 0.845306
745 1 1 14.514767 2.327532 0.556336
746 1 1 14.571773 2.158817 0.220649
747 1 1 14.944049 2.183262 0.148450
748 1 1 14.851490 2.399168 40.538575
749 1 1 14.478431 2.428883 40.472668
750 1 1 14.363167 2.748918 40.303281
751 1 1 14.356194 2.865410 39.941644
752 1 1 14.091371 2.776800 39.683930
753 1 1 14.111727 2.452183 39.487437
754 1 1 14.187727 2.080969 39.458726
755 1 1 14.125535 1.727639 39.333468
756 1 1 13.977305 1.572554 39.019818
757 1 1 13.903537 1.635573 38.652412
758 1 1 13.703100 1.797010 38.372836
759 1 1 13.750218 2.000641 38.055481
760 1 1 13.566152 1.963194 37.725151
761 1 1 13.561020 2.219909 37.445024
762 1 1 13.578275 2.594093 37.508966
763 1 1 13.833905 2.838212 37.648463
764 1 1 14.125154 2.852114 37.892144
765 1 1 14.278058 3.183009 37.999517
766 1 1 14.490791 3.497545 37.984973
767 1 1 14.739689 3.759576 37.867545
768 1 1 14.700587 3.937110 37.533849
769 1 1 14.743215 3.858290 37.164566
770 1 1 14.757538 3.502065 37.033040
771 1 1 14.617422 3.153180 36.977843
772 1 1 14.635421 3.052649 36.611825
773 1 1 14.875766 3.087327 36.319538
774 1 1 15.069946 2.873722 36.072421
775 1 1 14.969930 2.512603 36.009256
776 1 1 15.235698 2.370580 35.777747
777 1 1 15.216016 2.370966 35.398257
778 1 1 15.202090 2.206471 35.055989
779 1 1 15.365187 2.291367 34.723436
780 1 1 15.404543 2.581873 34.481657
781 1 1 15.607020 2.594125 34.160327
782 1 1 15.503143 2.508547 33.804959
783 1 1 15.497973 2.135171 33.734508
784 1 1 15.291540 1.868360 33.559587
785 1 1 15.444847 1.528838 33.484611
786 1 1 15.513795 1.173386 33.369283
787 1 1 15.593402 0.923476 33.094315
788 1 1 15.432106 0.939367 32.750613
789 1 1 15.468275 0.914040 32.373187
790 1 1 15.777589 0.756825 32.218241
791 1 1 16.016315 0.521624 32.397379
792 1 1 16.366141 0.604341 32.520583
793 1 1 16.454046 0.750915 32.859978
794 1 1 16.497240 0.845989 33.225348
795 1 1 16.441480 0.959976 33.583535
796 1 1 16.639421 0.920881 33.905546
797 1 1 16.912809 1.171197 33.989216
798 1 1 17.100949 1.089773 34.309174
799 1 1 17.202593 0.724093 34.290551
800 1 1 17.251018 0.354057 34.218941
801 1 1 17.190192 0.048919 34.437095
802 1 1 17.191925 40.416670 34.640350