LAMMPS data file for polymer system

27000 atoms
26940 bonds

1 atom types
1 bond types

0.0 40.688818183822356 xlo xhi
0.0 40.688818183822356 ylo yhi
0.0 40.688818183822356 zlo zhi

Masses

1 5.65487

Atoms

1 1 1 33.175878 24.229988 17.161408
2 1 1 33.522614 24.217026 17.006468
3 1 1 33.902035 24.234218 17.018491
4 1 1 34.276279 24.168333 17.017969
5 1 1 34.623891 24.150360 16.865511
6 1 1 34.942150 23.948595 16.914522
7 1 1 35.017053 23.916418 17.285675
8 1 1 34.850646 23.597833 17.409015
9 1 1 34.552278 23.439167 17.582801
10 1 1 34.644562 23.198341 17.861882
11 1 1 34.884843 22.910363 17.800781
12 1 1 34.898985 22.712583 17.476615
13 1 1 34.685301 22.402386 17.526779
14 1 1 34.878530 22.084781 17.605450
15 1 1 34.976592 21.719204 17.639176
16 1 1 35.256190 21.466782 17.689258
17 1 1 35.472717 21.268903 17.930836
18 1 1 35.368884 21.045845 18.220428
19 1 1 35.211951 21.110570 18.560403
20 1 1 35.050302 21.242534 18.877980
21 1 1 35.249252 21.539691 19.006497
22 1 1 35.472331 21.843183 18.956213
23 1 1 35.383139 22.121922 18.713831
24 1 1 35.301385 22.009151 18.360279
25 1 1 34.937714 21.904141 18.326864
26 1 1 34.651225 21.654936 18.311991
27 1 1 34.309839 21.510659 18.228090
28 1 1 33.976221 21.486313 18.047795
29 1 1 33.600935 21.496258 18.106631
30 1 1 33.479352 21.347957 18.434692
31 1 1 33.705719 21.127797 18.646086
32 1 1 33.863283 20.796018 18.548637
33 1 1 33.705099 20.478016 18.683738
34 1 1 33.637974 20.104975 18.710836
35 1 1 33.458286 19.770151 18.713229
36 1 1 33.540105 19.541761 19.005707
37 1 1 33.563531 19.706116 19.347523
38 1 1 33.919378 19.836842 19.373667
39 1 1 34.291468 19.913249 19.363119
40 1 1 34.510582 19.904615 19.673465
41 1 1 34.520719 19.614439 19.918608
42 1 1 34.344189 19.692076 20.246037
43 1 1 34.015701 19.527008 20.342201
44 1 1 33.744451 19.447604 20.088196
45 1 1 33.476669 19.186355 20.154842
46 1 1 33.357212 19.209845 20.514812
47 1 1 33.394798 19.304554 20.880896
48 1 1 33.533730 19.593194 21.085309
49 1 1 33.644435 19.895304 21.287483
50 1 1 33.970339 19.864554 21.480462
51 1 1 34.243711 20.116140 21.400637
52 1 1 34.551372 19.990198 21.584712
53 1 1 34.889233 19.821943 21.540664
54 1 1 35.260069 19.745834 21.573646
55 1 1 35.541131 19.502783 21.653211
56 1 1 35.720108 19.379067 21.964758
57 1 1 35.527666 19.471996 22.278972
58 1 1 35.200290 19.657573 22.226190
59 1 1 35.088300 19.949639 22.441958
60 1 1 34.850977 20.235495 22.521734
61 1 1 34.672977 20.570796 22.504724
62 1 1 34.374140 20.767895 22.377255
63 1 1 34.058916 20.557110 22.401825
64 1 1 33.872948 20.493832 22.076537
65 1 1 33.560046 20.280294 22.106434
66 1 1 33.220696 20.397340 22.231102
67 1 1 32.951614 20.481797 21.976423
68 1 1 32.781104 20.160693 21.865885
69 1 1 32.430516 20.030696 21.933626
70 1 1 32.221898 20.052813 22.250469
71 1 1 32.363216 20.207114 22.567676
72 1 1 32.065778 20.288838 22.789604
73 1 1 32.077953 20.650238 22.906405
74 1 1 32.140002 20.991017 22.750137
75 1 1 31.807766 21.165898 22.691522
76 1 1 31.542199 21.044585 22.934745
77 1 1 31.366097 20.748755 23.095596
78 1 1 31.048497 20.828618 23.288345
79 1 1 30.752659 20.703355 23.085394
80 1 1 30.536713 20.638687 22.779477
81 1 1 30.326610 20.334278 22.866608
82 1 1 30.116822 20.019778 22.905070
83 1 1 29.968771 19.769445 23.149639
84 1 1 29.949384 19.536139 23.448959
85 1 1 30.137524 19.209084 23.494105
86 1 1 30.333324 19.126150 23.179170
87 1 1 30.541277 18.822601 23.274110
88 1 1 30.858626 18.632212 23.187847
89 1 1 30.944236 18.395622 22.903072
90 1 1 30.827484 18.511444 22.560502
91 1 1 30.478392 18.653444 22.511813
92 1 1 30.131459 18.692173 22.661939
93 1 1 30.033002 18.595220 23.015926
94 1 1 30.045172 18.279700 23.227348
95 1 1 30.030040 18.001771 23.486050
96 1 1 30.205879 17.847991 23.785770
97 1 1 30.430681 18.039815 24.024657
98 1 1 30.567742 17.944261 24.365954
99 1 1 30.852966 18.152454 24.506321
100 1 1 30.994517 18.016322 24.831639
101 1 1 31.190101 17.946233 25.149812
102 1 1 31.542330 18.064758 25.229103
103 1 1 31.676914 17.826057 25.492369
104 1 1 31.839498 17.533017 25.313219
105 1 1 31.907981 17.159363 25.303591
106 1 1 31.965194 16.784619 25.329926
107 1 1 32.164995 16.590955 25.588719
108 1 1 32.475865 16.771320 25.712122
109 1 1 32.837919 16.721356 25.816144
110 1 1 33.116181 16.492635 25.695078
111 1 1 33.457661 16.635261 25.781383
112 1 1 33.736437 16.759180 25.554825
113 1 1 34.085582 16.908975 25.562522
114 1 1 34.367592 16.834961 25.806228
115 1 1 34.719332 16.833694 25.950022
116 1 1 34.803519 17.197996 26.017821
117 1 1 35.124983 17.317506 25.854181
118 1 1 35.423672 17.512719 25.984859
119 1 1 35.634314 17.815279 26.076983
120 1 1 35.847740 18.011968 25.831702
121 1 1 36.186043 18.180727 25.793340
122 1 1 36.428008 17.930854 25.640316
123 1 1 36.239811 17.766694 25.353901
124 1 1 36.161012 18.041471 25.103524
125 1 1 36.294721 17.968945 24.755298
126 1 1 36.496614 18.097104 24.459977
127 1 1 36.590529 18.459329 24.526106
128 1 1 36.964961 18.509409 24.567246
129 1 1 37.283304 18.708620 24.625323
130 1 1 37.366813 18.907070 24.938442
131 1 1 37.577693 19.221940 24.910394
132 1 1 37.804842 19.476426 24.742943
133 1 1 37.729849 19.835621 24.841708
134 1 1 37.679326 20.097240 24.570778
135 1 1 37.341001 20.269896 24.582010
136 1 1 36.961781 20.254661 24.563027
137 1 1 36.729472 20.503013 24.393457
138 1 1 36.827606 20.816192 24.201915
139 1 1 36.659147 21.078652 23.984806
140 1 1 36.333539 21.268298 24.033937
141 1 1 36.226115 21.617355 24.138910
142 1 1 35.929062 21.726607 24.349203
143 1 1 36.037143 21.777604 24.709922
144 1 1 35.827908 22.048840 24.874396
145 1 1 35.849537 22.317879 25.141884
146 1 1 35.633353 22.630337 25.147803
147 1 1 35.516697 22.857464 24.866370
148 1 1 35.301169 23.147347 24.984333
149 1 1 35.009050 23.380502 25.052928
150 1 1 34.962388 23.730527 24.912553
151 1 1 34.823774 24.033546 24.729891
152 1 1 34.715714 24.277854 25.000144
153 1 1 34.732854 24.212681 25.374121
154 1 1 34.432176 24.000126 25.468001
155 1 1 34.323033 23.728117 25.709866
156 1 1 34.400570 23.389664 25.864260
157 1 1 34.513553 23.257174 26.202019
158 1 1 34.812534 23.036880 26.282521
159 1 1 34.835440 22.661569 26.337446
160 1 1 35.182562 22.587924 26.473397
161 1 1 35.390410 22.847941 26.656673
162 1 1 35.585384 23.047680 26.398817
163 1 1 35.654325 22.836367 26.090606
164 1 1 35.613426 22.478523 25.969468
165 1 1 35.922257 22.286166 26.079113
166 1 1 36.250433 22.477741 26.079279
167 1 1 36.536496 22.263882 25.949539
168 1 1 36.749717 22.010672 25.762935
169 1 1 37.106849 22.137307 25.734294
170 1 1 37.277156 22.471506 25.673415
171 1 1 37.114031 22.784963 25.813184
172 1 1 37.352451 23.045293 25.953840
173 1 1 37.284538 23.147104 26.313593
174 1 1 37.189270 22.883479 26.570159
175 1 1 37.102725 22.550054 26.409730
176 1 1 37.016883 22.185605 26.474599
177 1 1 37.028968 22.079588 26.839311
178 1 1 37.169691 21.875447 27.127276
179 1 1 37.281657 21.512348 27.122533
180 1 1 37.597118 21.436412 27.320316
181 1 1 37.965580 21.500260 27.252795
182 1 1 38.024339 21.870931 27.312380
183 1 1 38.143488 22.092507 27.597173
184 1 1 38.505812 22.180668 27.524038
185 1 1 38.617006 22.148115 27.162132
186 1 1 38.898276 22.159045 26.906853
187 1 1 38.950231 22.026747 26.554435
188 1 1 38.935473 22.265013 26.258781
189 1 1 39.182222 22.545434 26.188928
190 1 1 39.535376 22.506137 26.323605
191 1 1 39.585040 22.561566 26.696246
192 1 1 39.894786 22.734798 26.832068
193 1 1 39.947948 23.044417 26.618270
194 1 1 39.921733 23.390621 26.772722
195 1 1 40.168450 23.677973 26.803694
196 1 1 40.404823 23.751333 26.515344
197 1 1 40.193764 23.840391 26.212156
198 1 1 40.013057 24.105647 26.008726
199 1 1 40.248981 24.402304 25.981620
200 1 1 40.589996 24.254953 25.901641
201 1 1 0.105751 24.113510 25.614337
202 1 1 0.094566 24.023707 25.983404
203 1 1 0.142986 23.797467 26.284851
204 1 1 0.176269 23.439027 26.163142
205 1 1 0.445824 23.206266 26.295665
206 1 1 0.790900 23.056228 26.242640
207 1 1 0.948961 22.868517 25.952500
208 1 1 1.098062 22.789950 25.611918
209 1 1 1.344468 22.631149 25.370120
210 1 1 1.628552 22.529787 25.138988
211 1 1 1.751308 22.739050 24.846516
212 1 1 1.800817 22.540131 24.526546
213 1 1 1.679909 22.183180 24.477889
214 1 1 1.696402 21.920141 24.204141
215 1 1 1.462283 21.696421 24.005299
216 1 1 1.558239 21.335703 24.076538
217 1 1 1.681904 20.986461 23.992054
218 1 1 1.427949 20.833637 23.754249
219 1 1 1.566031 20.543141 23.551899
220 1 1 1.671308 20.434004 23.203466
221 1 1 1.414316 20.218090 23.025321
222 1 1 1.072328 20.324865 22.898657
223 1 1 0.708466 20.429790 22.867110
224 1 1 0.469158 20.664212 22.687728
225 1 1 0.485996 21.043490 22.703981
226 1 1 0.832936 21.146295 22.587948
227 1 1 1.050642 21.357340 22.358897
228 1 1 1.192658 21.398222 22.008811
229 1 1 1.565439 21.341860 21.961295
230 1 1 1.710928 21.027305 22.117142
231 1 1 1.582101 20.721509 21.931959
232 1 1 1.206261 20.724251 21.987960
233 1 1 0.947647 20.497436 22.149433
234 1 1 0.751835 20.177885 22.212241
235 1 1 0.800077 19.830458 22.358417
236 1 1 0.728670 19.459221 22.396948
237 1 1 0.676083 19.182034 22.651510
238 1 1 1.001068 19.000070 22.726838
239 1 1 1.188811 18.726385 22.541773
240 1 1 1.095284 18.713871 22.173675
241 1 1 1.280167 18.758599 21.844711
242 1 1 1.617303 18.838928 21.688868
243 1 1 1.821966 19.153882 21.746459
244 1 1 2.115336 19.360628 21.621598
245 1 1 2.444617 19.239032 21.767159
246 1 1 2.643373 18.921319 21.830043
247 1 1 2.933930 18.738066 21.992510
248 1 1 3.229658 18.765219 21.755428
249 1 1 3.572562 18.603860 21.783362
250 1 1 3.909729 18.761126 21.860728
251 1 1 3.967330 19.005812 22.145704
252 1 1 3.773294 19.293185 22.301159
253 1 1 3.462755 19.186640 22.492505
254 1 1 3.090650 19.158901 22.564397
255 1 1 2.857935 19.306094 22.826271
256 1 1 2.902305 19.177396 23.181050
257 1 1 2.665146 18.910007 23.310119
258 1 1 2.514997 18.657390 23.551034
259 1 1 2.574306 18.282449 23.533658
260 1 1 2.739914 18.044781 23.287714
261 1 1 2.807725 17.721231 23.475108
262 1 1 3.172904 17.625771 23.519058
263 1 1 3.489692 17.607368 23.309996
264 1 1 3.464980 17.325064 23.056829
265 1 1 3.747911 17.363306 22.806055
266 1 1 3.940706 17.683336 22.875416
267 1 1 4.033038 18.035770 22.767409
268 1 1 4.111988 18.387460 22.887743
269 1 1 3.831405 18.600488 23.030195
270 1 1 3.489055 18.516684 23.172230
271 1 1 3.242979 18.490488 22.883854
272 1 1 2.869875 18.444472 22.828395
273 1 1 2.776958 18.193113 22.558979
274 1 1 2.459325 18.297004 22.378103
275 1 1 2.366487 18.125590 22.051915
276 1 1 2.318153 18.110881 21.675289
277 1 1 2.008790 18.099287 21.454926
278 1 1 2.032835 18.064747 21.077263
279 1 1 1.881358 17.992346 20.736363
280 1 1 1.933896 17.926388 20.365838
281 1 1 2.230606 17.918881 20.128547
282 1 1 2.562145 17.738459 20.172482
283 1 1 2.596718 17.361071 20.200466
284 1 1 2.675646 16.993654 20.144114
285 1 1 3.038977 16.954025 20.040094
286 1 1 3.185793 17.256294 19.862673
287 1 1 3.371278 17.136409 19.553444
288 1 1 3.730946 17.130383 19.430959
289 1 1 3.962355 16.902066 19.234182
290 1 1 4.262911 16.684177 19.153001
291 1 1 4.497764 16.417905 19.288440
292 1 1 4.459877 16.268822 19.635915
293 1 1 4.641941 16.226082 19.966711
294 1 1 4.742519 15.859972 19.982437
295 1 1 4.995062 15.584048 20.049433
296 1 1 5.353451 15.538788 20.167369
297 1 1 5.558485 15.656950 20.464688
298 1 1 5.913011 15.538659 20.395999
299 1 1 6.109868 15.329043 20.644411
300 1 1 6.084189 15.137152 20.971394
301 1 1 5.845023 14.860226 21.073922
302 1 1 6.022734 14.642467 21.329656
303 1 1 5.763190 14.495513 21.565116
304 1 1 5.434190 14.534219 21.751292
305 1 1 5.333977 14.900115 21.729449
306 1 1 5.236724 15.009868 22.080015
307 1 1 5.480255 15.200980 22.300398
308 1 1 5.810011 15.028749 22.377844
309 1 1 5.908712 14.673698 22.470562
310 1 1 6.223518 14.465319 22.513870
311 1 1 6.393514 14.256522 22.245719
312 1 1 6.460950 13.884445 22.283277
313 1 1 6.749241 13.636892 22.285768
314 1 1 6.835150 13.571247 21.921474
315 1 1 6.683215 13.252258 21.781608
316 1 1 6.539935 12.901313 21.808221
317 1 1 6.229268 12.767790 21.634849
318 1 1 6.331239 12.564807 21.330218
319 1 1 6.335989 12.585302 20.950801
320 1 1 6.300503 12.260384 20.756974
321 1 1 6.366451 11.895173 20.675295
322 1 1 6.182451 11.670542 20.920417
323 1 1 5.903208 11.449497 21.052940
324 1 1 5.813144 11.169885 20.811889
325 1 1 5.754520 11.039444 20.459826
326 1 1 5.958841 10.815664 20.230532
327 1 1 6.256342 10.609282 20.345855
328 1 1 6.346651 10.689979 20.706039
329 1 1 6.466241 10.932069 20.973416
330 1 1 6.515287 10.756945 21.307072
331 1 1 6.590106 10.639475 21.660629
332 1 1 6.552005 10.433845 21.977906
333 1 1 6.340980 10.206689 22.197608
334 1 1 6.183585 10.355960 22.509610
335 1 1 5.997100 10.192208 22.797374
336 1 1 6.005364 9.814253 22.835867
337 1 1 5.908243 9.567042 22.564105
338 1 1 6.040123 9.211158 22.545283
339 1 1 6.401145 9.148666 22.444497
340 1 1 6.667725 9.008930 22.212529
341 1 1 6.772935 8.665788 22.337366
342 1 1 7.092538 8.467632 22.392028
343 1 1 7.452319 8.505885 22.508194
344 1 1 7.455481 8.452075 22.884351
345 1 1 7.685521 8.381319 23.178418
346 1 1 7.534991 8.173367 23.458591
347 1 1 7.430651 8.416056 23.731749
348 1 1 7.120120 8.625760 23.668546
349 1 1 6.796244 8.778631 23.795569
350 1 1 6.558018 8.970512 23.570115
351 1 1 6.375357 8.741528 23.328037
352 1 1 6.247984 8.405735 23.203865
353 1 1 6.457147 8.186024 22.975003
354 1 1 6.556810 7.987513 22.666683
355 1 1 6.314136 7.839476 22.414505
356 1 1 6.305216 7.857762 22.035050
357 1 1 6.176729 7.740264 21.697285
358 1 1 5.884963 7.604866 21.494948
359 1 1 5.565596 7.484272 21.661866
360 1 1 5.340405 7.178268 21.654740
361 1 1 5.276190 6.896002 21.408564
362 1 1 5.394101 6.691998 21.110438
363 1 1 5.580767 6.437122 20.899265
364 1 1 5.398160 6.120372 20.795709
365 1 1 5.254096 5.955068 20.485354
366 1 1 4.885369 5.894932 20.415895
367 1 1 4.781292 5.531527 20.454687
368 1 1 4.851199 5.167458 20.538155
369 1 1 4.665183 4.966454 20.801585
370 1 1 4.517274 5.175337 21.082461
371 1 1 4.396658 5.205442 21.441551
372 1 1 4.528095 5.218366 21.797861
373 1 1 4.406239 5.416400 22.098417
374 1 1 4.707037 5.561108 22.280021
375 1 1 4.985359 5.571630 22.021513
376 1 1 5.285916 5.470414 21.812179
377 1 1 5.406577 5.506520 21.453658
378 1 1 5.785628 5.519961 21.430421
379 1 1 6.149310 5.619152 21.382502
380 1 1 6.424924 5.853161 21.499450
381 1 1 6.363787 6.175466 21.307664
382 1 1 6.136300 6.462006 21.204980
383 1 1 6.085269 6.777167 20.998898
384 1 1 6.103401 6.669390 20.634954
385 1 1 6.032788 6.921688 20.359709
386 1 1 6.283403 7.132251 20.166692
387 1 1 6.320309 7.313096 19.834528
388 1 1 6.226010 7.461386 19.497604
389 1 1 5.993605 7.316170 19.234355
390 1 1 6.071890 6.948104 19.181451
391 1 1 6.112774 6.681602 18.913673
392 1 1 6.130449 6.796829 18.551996
393 1 1 6.466732 6.968118 18.507572
394 1 1 6.569385 7.282575 18.320546
395 1 1 6.669089 7.632427 18.430377
396 1 1 6.389525 7.772294 18.646434
397 1 1 6.184507 8.078673 18.554244
398 1 1 5.810196 8.124321 18.601236
399 1 1 5.513806 8.081231 18.835107
400 1 1 5.300899 8.217392 19.118887
401 1 1 5.213146 8.311437 19.476455
402 1 1 5.437668 8.231707 19.772484
403 1 1 5.466125 8.133053 20.138350
404 1 1 5.637788 8.066397 20.470749
405 1 1 5.971627 8.193084 20.600755
406 1 1 6.316288 8.351354 20.624416
407 1 1 6.472745 8.642408 20.812054
408 1 1 6.495876 8.715901 21.184161
409 1 1 6.798111 8.758135 21.410590
410 1 1 6.936867 9.022743 21.645387
411 1 1 6.833053 9.382721 21.581840
412 1 1 6.986302 9.643449 21.811917
413 1 1 7.229177 9.625585 22.103624
414 1 1 7.527646 9.860735 22.099097
415 1 1 7.837323 10.074385 22.045677
416 1 1 8.089030 10.052036 21.761874
417 1 1 8.118818 9.765960 21.513533
418 1 1 8.076919 9.837700 21.142726
419 1 1 7.893328 9.705259 20.837515
420 1 1 7.871851 9.588874 20.476415
421 1 1 7.566528 9.600895 20.250509
422 1 1 7.294436 9.844224 20.356136
423 1 1 7.267828 9.947403 20.720891
424 1 1 7.295815 9.971912 21.099066
425 1 1 7.421065 9.891218 21.448638
426 1 1 7.502154 9.519998 21.453076
427 1 1 7.337262 9.290293 21.199214
428 1 1 7.281318 9.258206 20.824726
429 1 1 6.970292 9.098802 20.675552
430 1 1 6.836810 9.133304 20.321444
431 1 1 6.787755 8.990609 19.972687
432 1 1 6.461378 9.092310 19.806751
433 1 1 6.419280 9.333359 19.516022
434 1 1 6.439165 9.295431 19.138443
435 1 1 6.199653 9.318056 18.844296
436 1 1 5.924495 9.576720 18.802099
437 1 1 5.649446 9.576617 19.064297
438 1 1 5.311252 9.414421 19.003330
439 1 1 5.111288 9.593405 18.734296
440 1 1 4.734701 9.634388 18.704253
441 1 1 4.365902 9.724359 18.721361
442 1 1 4.143179 10.028630 18.768407
443 1 1 3.860613 10.256616 18.656251
444 1 1 3.872468 10.316048 18.281115
445 1 1 3.830738 10.660983 18.127237
446 1 1 4.092727 10.734542 17.862001
447 1 1 4.214855 11.091819 17.904873
448 1 1 3.984617 11.344321 17.738643
449 1 1 3.826353 11.419549 17.401458
450 1 1 3.527896 11.392786 17.167776
451 1 1 38.703595 12.240393 18.565831
452 1 1 38.834321 11.906558 18.439876
453 1 1 38.775409 11.550986 18.560283
454 1 1 38.653156 11.216801 18.426962
455 1 1 38.313732 11.046009 18.422305
456 1 1 37.985060 11.228832 18.476619
457 1 1 37.766435 11.489830 18.307850
458 1 1 37.598812 11.408685 17.976613
459 1 1 37.352242 11.192863 17.784196
460 1 1 37.335187 10.933331 17.507154
461 1 1 37.022066 10.718229 17.516454
462 1 1 36.926032 10.377202 17.653851
463 1 1 36.918633 10.247770 18.011052
464 1 1 37.169490 9.990275 18.134205
465 1 1 37.001624 9.651923 18.092509
466 1 1 36.682104 9.447352 18.071128
467 1 1 36.684087 9.122235 18.267838
468 1 1 37.027877 9.109345 18.429214
469 1 1 37.281541 9.366705 18.546774
470 1 1 37.434726 9.667322 18.721598
471 1 1 37.363865 9.930045 18.986844
472 1 1 37.130965 9.928554 19.287103
473 1 1 36.904229 9.797928 19.562652
474 1 1 36.566509 9.628070 19.601307
475 1 1 36.242932 9.684141 19.410116
476 1 1 36.181689 9.384402 19.184716
477 1 1 36.226477 9.067331 18.980118
478 1 1 36.153333 8.762856 18.764839
479 1 1 35.816168 8.798562 18.593245
480 1 1 35.527407 8.791012 18.346344
481 1 1 35.155030 8.743027 18.287752
482 1 1 34.797003 8.862748 18.331152
483 1 1 34.609991 9.000737 18.030511
484 1 1 34.527250 9.012174 17.659804
485 1 1 34.434221 8.703475 17.458681
486 1 1 34.621564 8.568492 17.156883
487 1 1 34.454140 8.396106 16.862516
488 1 1 34.167439 8.371175 16.614361
489 1 1 33.893856 8.113060 16.668478
490 1 1 33.989497 7.818337 16.448497
491 1 1 34.352184 7.740183 16.530656
492 1 1 34.725703 7.781786 16.586808
493 1 1 35.071792 7.624883 16.588669
494 1 1 35.277773 7.533115 16.282809
495 1 1 35.228229 7.322536 15.970396
496 1 1 35.458372 7.020602 15.953971
497 1 1 35.373888 6.657938 16.029716
498 1 1 35.338387 6.372052 16.277524
499 1 1 35.092719 6.245597 16.538400
500 1 1 35.162022 6.078515 16.872587
501 1 1 35.022860 6.253129 17.180067
502 1 1 34.648050 6.314458 17.192557
503 1 1 34.348571 6.521495 17.301407
504 1 1 34.004945 6.623221 17.427792
505 1 1 33.744881 6.390897 17.276822
506 1 1 33.581879 6.102285 17.090989
507 1 1 33.245136 6.204832 16.947851
508 1 1 32.868653 6.216872 16.897695
509 1 1 32.749583 6.565729 16.805383
510 1 1 32.713190 6.899420 16.983499
511 1 1 33.056597 6.993592 17.116176
512 1 1 33.091538 7.225282 17.415340
513 1 1 33.271220 7.483611 17.628367
514 1 1 33.006275 7.712953 17.775357
515 1 1 32.932856 8.009579 18.001240
516 1 1 33.044591 7.980657 18.363288
517 1 1 32.771654 7.904020 18.616333
518 1 1 32.519142 8.187358 18.635239
519 1 1 32.467969 8.345043 18.977170
520 1 1 32.305477 8.624217 19.177316
521 1 1 32.071186 8.895620 19.303206
522 1 1 31.831579 9.103990 19.511941
523 1 1 31.893605 9.028070 19.879077
524 1 1 31.662395 9.257459 20.074840
525 1 1 31.422977 9.535178 19.975085
526 1 1 31.185150 9.814741 19.876684
527 1 1 31.258853 9.992748 19.549146
528 1 1 31.227770 10.365404 19.616679
529 1 1 31.226907 10.730378 19.722478
530 1 1 31.094293 10.965014 19.990358
531 1 1 31.174063 11.159457 20.306946
532 1 1 30.895847 11.203641 20.561983
533 1 1 30.565252 11.279506 20.733305
534 1 1 30.263769 11.456091 20.882723
535 1 1 29.993911 11.667894 21.046173
536 1 1 29.894623 12.021782 20.949713
537 1 1 29.659171 12.308138 20.866270
538 1 1 29.852583 12.586050 20.693768
539 1 1 30.156094 12.813053 20.666365
540 1 1 30.348307 12.942578 20.967491
541 1 1 30.231125 12.774372 21.287452
542 1 1 30.314506 12.767997 21.658137
543 1 1 30.574719 12.978861 21.837652
544 1 1 30.937216 13.090129 21.862444
545 1 1 31.122618 13.256210 22.149574
546 1 1 31.095603 13.634158 22.120842
547 1 1 31.188723 13.719430 21.762432
548 1 1 31.386076 13.958290 21.542438
549 1 1 31.225393 14.142641 21.251584
550 1 1 31.294180 13.986012 20.912267
551 1 1 31.298874 13.776066 20.595565
552 1 1 31.224725 13.925239 20.254025
553 1 1 30.916456 14.035175 20.060934
554 1 1 30.685739 14.222742 20.297553
555 1 1 30.318038 14.318106 20.307640
556 1 1 30.169417 14.556827 20.052055
557 1 1 29.817225 14.500749 19.920844
558 1 1 29.521943 14.302741 20.055012
559 1 1 29.453585 14.380330 20.420672
560 1 1 29.370919 14.483563 20.776915
561 1 1 29.594413 14.470175 21.083951
562 1 1 29.748929 14.388472 21.421367
563 1 1 30.111734 14.324306 21.514398
564 1 1 30.166822 13.949298 21.487299
565 1 1 29.966421 13.646238 21.598630
566 1 1 29.893754 13.327011 21.405721
567 1 1 29.905207 13.409100 21.034871
568 1 1 29.783990 13.371555 20.676685
569 1 1 29.590297 13.264354 20.367831
570 1 1 29.756811 13.367294 20.042137
571 1 1 29.871466 13.609857 19.773032
572 1 1 29.911786 13.813430 19.454705
573 1 1 29.947450 13.973465 19.111897
574 1 1 29.658976 13.987350 18.864936
575 1 1 29.539149 13.650735 18.735582
576 1 1 29.794484 13.374646 18.790157
577 1 1 29.810805 13.161592 19.104389
578 1 1 29.724277 12.791980 19.121703
579 1 1 29.917129 12.526103 18.930608
580 1 1 30.244565 12.402862 19.078923
581 1 1 30.374361 12.056215 18.992964
582 1 1 30.259440 11.706008 18.900507
583 1 1 29.957989 11.741721 18.671921
584 1 1 29.943626 11.479836 18.396949
585 1 1 30.069868 11.361249 18.058718
586 1 1 30.331443 11.451739 17.798353
587 1 1 30.537872 11.241878 17.558050
588 1 1 30.872033 11.089377 17.655415
589 1 1 30.945213 10.742058 17.519717
590 1 1 31.167163 10.569287 17.264201
591 1 1 31.001558 10.492572 16.930899
592 1 1 30.624790 10.514704 16.975129
593 1 1 30.301441 10.606610 16.797933
594 1 1 30.005039 10.754206 16.611488
595 1 1 30.058863 11.129872 16.630923
596 1 1 30.104665 11.292394 16.290498
597 1 1 29.787946 11.457035 16.160181
598 1 1 29.485104 11.227846 16.147590
599 1 1 29.130446 11.110756 16.077536
600 1 1 28.974641 10.801549 16.234112
601 1 1 29.100381 10.466202 16.107101
602 1 1 29.176986 10.151126 16.305239
603 1 1 28.875843 9.932641 16.382551
604 1 1 28.556514 9.955767 16.587232
605 1 1 28.281017 10.081687 16.816678
606 1 1 28.055070 9.909694 17.069199
607 1 1 27.707432 10.060540 17.041034
608 1 1 27.581983 10.028369 16.683784
609 1 1 27.451152 10.124060 16.340089
610 1 1 27.309460 10.428451 16.162130
611 1 1 27.025433 10.575218 16.367528
612 1 1 26.714823 10.725749 16.526467
613 1 1 26.436178 10.473680 16.583197
614 1 1 26.351614 10.112758 16.499626
615 1 1 26.505584 9.982919 16.177391
616 1 1 26.591149 9.762001 15.880283
617 1 1 26.906556 9.575193 15.980389
618 1 1 27.036581 9.340867 16.249805
619 1 1 27.232592 9.501693 16.532849
620 1 1 27.387955 9.334390 16.836612
621 1 1 27.222775 9.238134 17.165018
622 1 1 27.153997 9.242616 17.538715
623 1 1 27.230917 9.498540 17.808875
624 1 1 27.048427 9.829313 17.849941
625 1 1 26.909125 10.066086 17.587389
626 1 1 26.753935 10.382575 17.729342
627 1 1 26.458422 10.376395 17.968160
628 1 1 26.395479 10.575553 18.285610
629 1 1 26.577129 10.670226 18.605673
630 1 1 26.503614 10.972377 18.824077
631 1 1 26.219524 11.203816 18.924719
632 1 1 25.875097 11.126032 18.784295
633 1 1 25.721029 11.324972 18.499539
634 1 1 25.377495 11.482351 18.539744
635 1 1 25.025846 11.358642 18.613491
636 1 1 24.721901 11.220653 18.431896
637 1 1 24.755806 10.957285 18.160072
638 1 1 24.765794 10.983072 17.781079
639 1 1 24.965299 10.688845 17.646810
640 1 1 25.178716 10.790771 17.349381
641 1 1 25.246338 11.156213 17.270140
642 1 1 25.565047 11.326243 17.388101
643 1 1 25.803900 11.324143 17.683642
644 1 1 25.668400 11.576148 17.933708
645 1 1 25.385353 11.829386 17.946157
646 1 1 25.142397 12.118213 17.901984
647 1 1 24.936107 12.336500 18.134783
648 1 1 24.644257 12.575241 18.181962
649 1 1 24.302436 12.647669 18.331337
650 1 1 24.042271 12.559150 18.593784
651 1 1 23.928237 12.644591 18.946057
652 1 1 24.035122 12.999067 19.031628
653 1 1 24.096052 13.207054 19.343764
654 1 1 24.466307 13.163071 19.417089
655 1 1 24.726998 12.994568 19.197892
656 1 1 25.006032 12.765114 19.315752
657 1 1 25.124425 12.578374 19.006703
658 1 1 25.496220 12.517009 18.957686
659 1 1 25.649273 12.360070 18.647291
660 1 1 25.572843 12.354808 18.275094
661 1 1 25.799216 12.619000 18.122261
662 1 1 25.994735 12.827191 18.372918
663 1 1 26.359498 12.817489 18.479002
664 1 1 26.521797 13.037205 18.743168
665 1 1 26.343098 13.360598 18.831959
666 1 1 26.105725 13.277039 19.116690
667 1 1 26.036806 13.093603 19.442269
668 1 1 25.933782 12.728952 19.413712
669 1 1 26.090511 12.383000 19.426075
670 1 1 26.095311 12.116198 19.155531
671 1 1 26.273197 12.260819 18.852478
672 1 1 26.581450 12.076897 18.727767
673 1 1 26.923042 11.922288 18.666033
674 1 1 27.206958 12.117743 18.825999
675 1 1 27.498438 12.027343 19.052421
676 1 1 27.614683 12.093892 19.408031
677 1 1 27.569703 11.900427 19.731988
678 1 1 27.214441 11.767003 19.751639
679 1 1 27.064610 11.624168 20.070306
680 1 1 27.239890 11.292203 20.129269
681 1 1 27.289379 11.152165 20.479040
682 1 1 27.488691 11.312016 20.760328
683 1 1 27.416865 11.554455 21.043990
684 1 1 27.684789 11.486300 21.304704
685 1 1 27.582438 11.542682 21.666291
686 1 1 27.349934 11.643500 21.949448
687 1 1 27.070994 11.479940 22.149048
688 1 1 27.023211 11.126148 22.018864
689 1 1 26.944171 10.874135 22.292071
690 1 1 27.212215 10.629141 22.404009
691 1 1 27.265306 10.538178 22.769121
692 1 1 27.421117 10.209529 22.879179
693 1 1 27.644964 10.040509 23.135546
694 1 1 27.975797 9.871813 23.216117
695 1 1 28.165153 9.713799 22.927022
696 1 1 28.254207 9.687975 22.558508
697 1 1 28.437113 9.960447 22.366925
698 1 1 28.600144 10.235949 22.571668
699 1 1 28.819975 10.543392 22.532267
700 1 1 29.013379 10.761742 22.775821
701 1 1 29.344613 10.907346 22.659704
702 1 1 29.396126 11.200095 22.422967
703 1 1 29.518151 11.060046 22.091461
704 1 1 29.259015 10.978339 21.825805
705 1 1 29.095494 10.643358 21.899617
706 1 1 28.989251 10.317245 21.736022
707 1 1 28.712897 10.056586 21.726812
708 1 1 28.470766 10.058178 21.433946
709 1 1 28.474037 9.799764 21.155358
710 1 1 28.689439 9.598683 20.915423
711 1 1 28.835978 9.783854 20.617702
712 1 1 28.990067 9.565489 20.347566
713 1 1 29.020820 9.210475 20.215586
714 1 1 28.954480 9.065895 19.870484
715 1 1 29.195578 8.802917 19.739659
716 1 1 29.226585 8.825427 19.361596
717 1 1 29.108135 8.518675 19.171142
718 1 1 29.037405 8.209051 18.962503
719 1 1 28.761014 7.974457 19.076406
720 1 1 28.439100 8.149593 19.176900
721 1 1 28.115127 8.128192 19.374343
722 1 1 27.873406 7.979547 19.627079
723 1 1 27.618790 7.846242 19.875675
724 1 1 27.409843 7.540559 19.961112
725 1 1 27.055240 7.421531 19.894116
726 1 1 26.881866 7.586116 19.598730
727 1 1 27.068823 7.673579 19.279673
728 1 1 27.442035 7.727970 19.233257
729 1 1 27.684401 7.457653 19.345452
730 1 1 27.749267 7.086481 19.394683
731 1 1 27.947146 6.937917 19.106287
732 1 1 28.037910 7.066174 18.760292
733 1 1 28.385417 7.050630 18.607331
734 1 1 28.761936 7.001158 18.593718
735 1 1 28.967467 6.702754 18.479210
736 1 1 29.127924 6.385307 18.612930
737 1 1 29.122364 6.042541 18.776884
738 1 1 29.460022 5.869621 18.798916
739 1 1 29.584427 5.614096 18.546665
740 1 1 29.612953 5.531803 18.176781
741 1 1 29.322112 5.609322 17.944828
742 1 1 29.266474 5.606637 17.568933
743 1 1 29.308412 5.434883 17.232568
744 1 1 29.628193 5.314552 17.066253
745 1 1 29.870569 5.212771 16.791855
746 1 1 29.746214 5.243972 16.434137
747 1 1 29.940625 5.181414 16.113683
748 1 1 29.909022 4.984587 15.790170
749 1 1 30.115161 5.107628 15.495606
750 1 1 30.187898 5.359208 15.220257
751 1 1 30.083431 5.713752 15.308488
752 1 1 30.123969 5.990236 15.050975
753 1 1 30.256461 6.241059 14.798124
754 1 1 30.285369 6.604778 14.691948
755 1 1 29.969837 6.704189 14.504981
756 1 1 29.644708 6.896269 14.462594
757 1 1 29.550884 7.221099 14.289151
758 1 1 29.194176 7.248254 14.161002
759 1 1 28.948863 7.416439 13.924496
760 1 1 28.780609 7.695523 13.729040
761 1 1 28.714506 8.021263 13.913225
762 1 1 28.460435 8.298368 13.857903
763 1 1 28.216935 8.365405 14.141829
764 1 1 28.186780 8.332995 14.519241
765 1 1 28.404072 8.166263 14.782650
766 1 1 28.754971 8.293947 14.712178
767 1 1 28.844519 8.524702 15.000507
768 1 1 28.990325 8.859182 15.106636
769 1 1 29.283196 8.939310 15.335123
770 1 1 29.373389 8.778947 15.667611
771 1 1 29.747016 8.775551 15.736830
772 1 1 30.103007 8.775566 15.603898
773 1 1 30.404426 8.977325 15.717210
774 1 1 30.745428 9.135135 15.660517
775 1 1 31.081618 9.055718 15.502186
776 1 1 31.386909 9.104948 15.281338
777 1 1 31.624854 9.397948 15.237366
778 1 1 31.795627 9.678755 15.428112
779 1 1 31.644290 9.970458 15.618917
780 1 1 31.710623 10.338557 15.686024
781 1 1 31.908601 10.633147 15.821749
782 1 1 31.741404 10.916092 16.012504
783 1 1 31.622179 10.888565 16.372264
784 1 1 31.293033 11.015708 16.513322
785 1 1 31.183514 11.378069 16.480149
786 1 1 30.820419 11.489368 16.466931
787 1 1 30.801957 11.800968 16.250218
788 1 1 30.599805 12.070931 16.075134
789 1 1 30.462687 12.402376 15.949664
790 1 1 30.654290 12.518326 15.642672
791 1 1 30.622538 12.743540 15.338254
792 1 1 30.411372 12.549122 15.089234
793 1 1 30.154097 12.605832 14.815385
794 1 1 29.999692 12.434494 14.513387
795 1 1 29.831285 12.160889 14.310460
796 1 1 29.492375 12.030184 14.198852
797 1 1 29.371569 12.286245 13.945399
798 1 1 29.029672 12.282245 13.779597
799 1 1 28.677934 12.404730 13.704246
800 1 1 28.454752 12.692947 13.596910