LAMMPS data file for polymer system

27000 atoms
26940 bonds

1 atom types
1 bond types

0.0 36.487593149437835 xlo xhi
0.0 36.487593149437835 ylo yhi
0.0 36.487593149437835 zlo zhi

Masses

1 5.65487

Atoms

1 1 1 32.253817 15.262282 29.906938
2 1 1 32.153014 15.109182 30.239804
3 1 1 31.906791 14.919248 30.458206
4 1 1 32.034774 14.893353 30.815067
5 1 1 32.203650 15.211727 30.935560
6 1 1 32.554051 15.154535 31.071017
7 1 1 32.614720 14.994195 31.410148
8 1 1 32.613169 14.680789 31.625030
9 1 1 32.772332 14.335732 31.623403
10 1 1 33.122870 14.189089 31.619031
11 1 1 33.300090 14.346904 31.322236
12 1 1 33.421482 14.620489 31.088109
13 1 1 33.695750 14.853054 30.965264
14 1 1 33.568518 15.141958 30.753732
15 1 1 33.474213 15.415894 30.507834
16 1 1 33.424009 15.792489 30.500350
17 1 1 33.522044 16.073443 30.264016
18 1 1 33.785611 16.203722 30.023267
19 1 1 34.158738 16.263696 29.983524
20 1 1 34.485921 16.446095 29.919638
21 1 1 34.673028 16.694900 29.701722
22 1 1 34.729194 16.861802 29.364989
23 1 1 34.841412 17.223611 29.334953
24 1 1 35.186616 17.228820 29.493720
25 1 1 35.473299 17.477546 29.512381
26 1 1 35.786998 17.648720 29.383182
27 1 1 35.975102 17.972421 29.448258
28 1 1 36.295186 18.061585 29.263877
29 1 1 0.133366 17.980927 29.442107
30 1 1 0.340466 17.688948 29.569613
31 1 1 0.714246 17.628148 29.538113
32 1 1 0.983639 17.808387 29.339767
33 1 1 0.968172 18.102920 29.100160
34 1 1 1.228628 18.040115 28.830682
35 1 1 1.599995 18.008205 28.904629
36 1 1 1.944043 17.854067 28.952302
37 1 1 2.120164 17.863310 29.288896
38 1 1 2.075398 18.039303 29.622696
39 1 1 1.853921 17.898557 29.897539
40 1 1 1.702016 18.164731 30.122208
41 1 1 1.743408 18.528838 30.021646
42 1 1 1.791271 18.836470 29.803766
43 1 1 1.687845 19.152660 29.987414
44 1 1 1.678356 19.400644 30.275189
45 1 1 1.510471 19.364535 30.614173
46 1 1 1.338368 19.027364 30.647288
47 1 1 1.145807 18.777323 30.435629
48 1 1 0.852222 18.945307 30.262456
49 1 1 0.505821 18.930750 30.106908
50 1 1 0.361106 18.672687 29.868453
51 1 1 0.577831 18.528618 29.591552
52 1 1 0.534425 18.656332 29.236298
53 1 1 0.409454 18.976227 29.073666
54 1 1 0.610359 19.205408 28.846701
55 1 1 0.837918 19.477533 28.982954
56 1 1 1.054487 19.736139 28.807967
57 1 1 1.434393 19.742346 28.813737
58 1 1 1.804916 19.807364 28.760028
59 1 1 1.944624 19.604338 28.470784
60 1 1 2.251362 19.724994 28.281697
61 1 1 2.569763 19.556668 28.160505
62 1 1 2.758453 19.267365 28.002076
63 1 1 3.035417 19.179594 27.757153
64 1 1 3.178933 19.436370 27.516592
65 1 1 3.464747 19.397345 27.269232
66 1 1 3.786370 19.257256 27.415290
67 1 1 3.900207 19.032825 27.700022
68 1 1 3.724616 18.717987 27.820209
69 1 1 3.811718 18.612240 28.174653
70 1 1 4.175470 18.512470 28.220812
71 1 1 4.469947 18.565873 28.454973
72 1 1 4.502996 18.302811 28.727197
73 1 1 4.867386 18.318863 28.833790
74 1 1 5.026249 18.057391 29.059168
75 1 1 5.382887 17.958865 28.972552
76 1 1 5.589519 17.743540 29.207793
77 1 1 5.917206 17.907777 29.308031
78 1 1 6.049139 18.262958 29.279038
79 1 1 6.312953 18.307772 29.009234
80 1 1 6.692854 18.299648 29.006257
81 1 1 7.059071 18.387953 29.056130
82 1 1 7.130764 18.715465 28.877255
83 1 1 6.926520 19.001029 28.731865
84 1 1 6.876327 19.334094 28.555945
85 1 1 6.853897 19.712504 28.529428
86 1 1 6.544097 19.932187 28.542204
87 1 1 6.588172 20.307435 28.501631
88 1 1 6.575185 20.666168 28.376965
89 1 1 6.410342 20.786146 28.056290
90 1 1 6.243215 20.479285 27.906943
91 1 1 6.285781 20.217152 27.635145
92 1 1 6.538780 19.971782 27.777220
93 1 1 6.721332 19.679453 27.617161
94 1 1 7.054792 19.685234 27.435033
95 1 1 7.245849 19.855159 27.153923
96 1 1 7.615944 19.933931 27.118924
97 1 1 7.727793 20.289387 27.193362
98 1 1 7.611098 20.540092 27.453994
99 1 1 7.582504 20.803627 27.726266
100 1 1 7.571457 20.646554 28.072107
101 1 1 7.367617 20.806206 28.350244
102 1 1 7.187947 20.775062 28.683634
103 1 1 7.194334 20.448534 28.877897
104 1 1 7.064482 20.295070 29.200367
105 1 1 6.724858 20.343213 29.363885
106 1 1 6.435750 20.219358 29.150632
107 1 1 6.135902 20.452511 29.139204
108 1 1 6.099264 20.675064 28.833380
109 1 1 6.219999 21.024338 28.744889
110 1 1 6.467517 21.200408 28.973219
111 1 1 6.792189 21.297753 28.801430
112 1 1 7.151388 21.421326 28.791156
113 1 1 7.519807 21.510512 28.817870
114 1 1 7.657532 21.527455 29.171628
115 1 1 7.458384 21.496969 29.493825
116 1 1 7.125198 21.315700 29.516810
117 1 1 6.777405 21.166062 29.549194
118 1 1 6.429236 21.116907 29.693285
119 1 1 6.355787 20.864730 29.967898
120 1 1 6.420099 20.583331 30.215039
121 1 1 6.505893 20.219877 30.285326
122 1 1 6.490345 19.841561 30.317502
123 1 1 6.340019 19.585309 30.554434
124 1 1 6.013622 19.481019 30.390151
125 1 1 5.707725 19.701430 30.342761
126 1 1 5.545329 19.855612 30.649771
127 1 1 5.773163 19.778000 30.943825
128 1 1 6.016178 20.066144 30.991960
129 1 1 6.054663 20.346993 30.738892
130 1 1 5.808346 20.422518 30.459565
131 1 1 5.460707 20.454328 30.309447
132 1 1 5.509103 20.594488 29.959571
133 1 1 5.326129 20.379640 29.705089
134 1 1 5.118319 20.091601 29.570001
135 1 1 5.094523 19.717070 29.629669
136 1 1 4.824710 19.454388 29.578689
137 1 1 4.573871 19.405296 29.297495
138 1 1 4.453677 19.247334 28.973456
139 1 1 4.612073 19.176167 28.635452
140 1 1 4.634230 19.503201 28.443208
141 1 1 4.916733 19.627246 28.221386
142 1 1 5.202547 19.470969 28.025713
143 1 1 5.510535 19.285846 27.902130
144 1 1 5.778905 19.453053 27.691371
145 1 1 5.736776 19.561329 27.329568
146 1 1 5.920566 19.890158 27.279643
147 1 1 5.934905 20.015665 26.921255
148 1 1 6.186067 20.300114 26.901090
149 1 1 6.300742 20.562894 26.651698
150 1 1 6.391236 20.915975 26.544253
151 1 1 6.530661 21.036870 26.212071
152 1 1 6.353801 20.966765 25.883124
153 1 1 5.984073 20.908379 25.948638
154 1 1 5.774150 20.767949 26.232561
155 1 1 5.670803 21.067660 26.442067
156 1 1 5.547049 21.130518 26.795810
157 1 1 5.546147 21.495930 26.900084
158 1 1 5.731463 21.781069 27.069654
159 1 1 5.710995 21.875155 27.437253
160 1 1 5.426819 22.106094 27.538799
161 1 1 5.247083 22.439871 27.512576
162 1 1 5.026143 22.731155 27.408945
163 1 1 5.143911 22.976577 27.143807
164 1 1 5.252149 23.225742 26.878098
165 1 1 5.156068 23.267484 26.512822
166 1 1 5.323694 23.350440 26.182035
167 1 1 5.212301 23.686059 26.042926
168 1 1 5.111182 23.774943 25.687574
169 1 1 5.029539 23.979363 25.377821
170 1 1 4.659769 23.932608 25.303768
171 1 1 4.293283 24.005840 25.372509
172 1 1 4.245006 23.948534 25.745048
173 1 1 4.145025 23.871048 26.103377
174 1 1 3.898014 23.585147 26.143951
175 1 1 3.918242 23.310407 25.882209
176 1 1 3.617163 23.098629 25.787861
177 1 1 3.515342 22.744511 25.694947
178 1 1 3.809812 22.504424 25.701685
179 1 1 3.997130 22.479187 25.372026
180 1 1 4.065279 22.108917 25.320490
181 1 1 4.126823 21.785972 25.129915
182 1 1 4.347837 21.685767 24.837490
183 1 1 4.715087 21.620959 24.764502
184 1 1 5.029981 21.831927 24.737402
185 1 1 5.313749 21.617537 24.603564
186 1 1 5.335247 21.238304 24.614526
187 1 1 5.343500 20.878610 24.492246
188 1 1 5.547014 20.656706 24.724066
189 1 1 5.811060 20.419945 24.587596
190 1 1 5.971350 20.076569 24.615876
191 1 1 6.295043 20.006411 24.802158
192 1 1 6.614146 20.035288 24.597855
193 1 1 6.916857 19.820989 24.515141
194 1 1 7.068318 19.511813 24.675982
195 1 1 7.017662 19.136318 24.704925
196 1 1 6.916177 18.779265 24.786249
197 1 1 6.636374 18.728742 25.038355
198 1 1 6.611211 19.007865 25.294982
199 1 1 6.357509 19.238167 25.459288
200 1 1 6.322930 19.603726 25.361460
201 1 1 6.600588 19.858949 25.408009
202 1 1 6.812938 20.128239 25.244330
203 1 1 6.948039 20.483250 25.255058
204 1 1 6.734477 20.660153 25.514859
205 1 1 6.833016 21.027150 25.516551
206 1 1 6.840144 21.396710 25.604725
207 1 1 6.749984 21.746516 25.722654
208 1 1 6.493086 21.997795 25.599115
209 1 1 6.646462 22.287940 25.407564
210 1 1 7.004201 22.376605 25.500090
211 1 1 7.148812 22.709194 25.386631
212 1 1 7.369080 22.827098 25.100309
213 1 1 7.657240 22.646921 24.930308
214 1 1 7.980724 22.541237 24.761225
215 1 1 8.334294 22.468233 24.879795
216 1 1 8.587898 22.330087 25.126779
217 1 1 8.961132 22.361000 25.191126
218 1 1 9.269196 22.242867 25.002602
219 1 1 9.545772 22.005251 24.895625
220 1 1 9.564875 21.629275 24.843890
221 1 1 9.207268 21.502981 24.820074
222 1 1 8.970395 21.761653 24.673855
223 1 1 8.955818 22.044966 24.421028
224 1 1 9.102408 22.189954 24.101826
225 1 1 8.998766 22.476759 23.875108
226 1 1 9.090440 22.812309 23.722132
227 1 1 8.970545 23.100550 23.938794
228 1 1 8.602163 23.095503 24.031903
229 1 1 8.317669 22.913153 23.858087
230 1 1 8.166053 22.997795 23.520081
231 1 1 8.124163 22.954744 23.144858
232 1 1 8.198255 22.625051 22.971039
233 1 1 8.418972 22.385323 23.166525
234 1 1 8.764293 22.232728 23.209744
235 1 1 8.869931 21.874352 23.140413
236 1 1 8.601441 21.625351 23.241959
237 1 1 8.454251 21.654564 23.591075
238 1 1 8.186680 21.592035 23.853555
239 1 1 7.957929 21.343902 24.028206
240 1 1 8.131420 21.006013 24.016721
241 1 1 8.247995 20.781811 23.732919
242 1 1 8.568135 20.577990 23.752092
243 1 1 8.942513 20.563994 23.815695
244 1 1 8.989054 20.364175 24.135548
245 1 1 9.131866 20.461495 24.473977
246 1 1 9.428022 20.699483 24.466693
247 1 1 9.752681 20.534515 24.358147
248 1 1 9.884255 20.722000 24.054934
249 1 1 9.642542 20.925536 23.843870
250 1 1 9.598276 21.302907 23.849501
251 1 1 9.767111 21.643295 23.843975
252 1 1 9.887976 21.780334 23.510790
253 1 1 10.013386 22.134356 23.452991
254 1 1 10.331320 22.340811 23.479348
255 1 1 10.698176 22.271225 23.408819
256 1 1 10.945839 22.315661 23.693580
257 1 1 11.117833 22.599681 23.878377
258 1 1 10.874258 22.740649 24.133720
259 1 1 10.509451 22.825309 24.069311
260 1 1 10.329360 23.149060 24.153884
261 1 1 9.953797 23.100230 24.185001
262 1 1 9.763341 22.848725 23.973172
263 1 1 9.695831 22.723793 23.620703
264 1 1 9.758579 22.653458 23.252579
265 1 1 9.524288 22.810810 22.998123
266 1 1 9.340269 23.007687 22.730212
267 1 1 9.133811 23.286765 22.884779
268 1 1 8.824050 23.328543 23.100887
269 1 1 8.799370 23.581153 23.383693
270 1 1 8.981815 23.905961 23.308771
271 1 1 9.308719 23.912095 23.115130
272 1 1 9.552505 23.647219 23.236823
273 1 1 9.783808 23.486135 23.491677
274 1 1 10.078944 23.585486 23.709449
275 1 1 10.421256 23.460535 23.601700
276 1 1 10.455615 23.563010 23.237394
277 1 1 10.338134 23.400920 22.914400
278 1 1 10.207575 23.221299 22.606033
279 1 1 10.183400 22.941820 22.349700
280 1 1 10.055595 22.584888 22.323899
281 1 1 9.826827 22.445857 22.054203
282 1 1 9.718876 22.375639 21.696689
283 1 1 9.354030 22.388872 21.591276
284 1 1 9.304939 22.474033 21.224210
285 1 1 9.130499 22.696094 20.969927
286 1 1 9.283828 22.814286 20.642940
287 1 1 9.241670 22.842283 20.266325
288 1 1 9.194789 22.509568 20.088835
289 1 1 9.199250 22.132218 20.044255
290 1 1 9.495173 21.906925 19.966332
291 1 1 9.537637 21.592670 20.175714
292 1 1 9.305835 21.304965 20.086868
293 1 1 9.046070 21.209029 19.826640
294 1 1 8.734419 21.050999 19.975973
295 1 1 8.361240 21.112965 20.011997
296 1 1 8.074068 21.248628 19.803365
297 1 1 8.044017 21.627437 19.802493
298 1 1 7.939837 21.873550 19.532354
299 1 1 7.678915 21.767442 19.277284
300 1 1 7.584835 21.931950 18.947912
301 1 1 7.348059 21.956272 18.651693
302 1 1 7.099067 21.673190 18.604071
303 1 1 7.018603 21.304507 18.648774
304 1 1 6.934363 21.007187 18.869918
305 1 1 6.557983 20.956978 18.884660
306 1 1 6.480574 20.823910 19.232079
307 1 1 6.244060 21.039175 19.437316
308 1 1 6.062137 21.123896 19.760002
309 1 1 6.210193 20.962505 20.070538
310 1 1 6.258495 20.954681 20.447374
311 1 1 6.355012 20.821706 20.790014
312 1 1 6.477351 20.588798 21.064216
313 1 1 6.249711 20.377383 21.283041
314 1 1 6.391503 20.056562 21.429221
315 1 1 6.509774 19.709335 21.528444
316 1 1 6.842912 19.603510 21.379378
317 1 1 7.101692 19.491668 21.124576
318 1 1 7.164098 19.116888 21.117874
319 1 1 6.887390 18.856476 21.122121
320 1 1 6.871557 18.479214 21.079426
321 1 1 6.636344 18.188392 21.012366
322 1 1 6.685568 17.820036 21.091681
323 1 1 6.761031 17.643373 20.763816
324 1 1 6.625772 17.508769 20.435203
325 1 1 6.803869 17.399933 20.117655
326 1 1 6.735735 17.629370 19.822500
327 1 1 6.712269 17.997544 19.913587
328 1 1 6.656787 18.302977 19.694424
329 1 1 6.589478 18.196177 19.336006
330 1 1 6.364704 18.059308 19.061884
331 1 1 6.047933 18.174461 18.886396
332 1 1 5.760887 17.943088 18.794360
333 1 1 5.466350 17.743946 18.928489
334 1 1 5.434256 17.824836 19.298390
335 1 1 5.268757 17.763431 19.634901
336 1 1 4.944708 17.605242 19.754769
337 1 1 4.827026 17.824309 20.042102
338 1 1 4.458650 17.749122 20.097292
339 1 1 4.177758 17.925912 20.282347
340 1 1 3.989443 17.989205 20.606279
341 1 1 4.083902 17.749035 20.885198
342 1 1 4.054816 17.573468 21.220951
343 1 1 3.976597 17.799869 21.515950
344 1 1 3.933505 17.685705 21.875824
345 1 1 4.093732 17.356090 21.976233
346 1 1 4.104303 17.129338 22.280981
347 1 1 4.222828 17.200725 22.634895
348 1 1 4.573768 17.059572 22.671186
349 1 1 4.758722 16.743364 22.772205
350 1 1 5.076460 16.632778 22.948876
351 1 1 5.346631 16.447800 22.756027
352 1 1 5.523654 16.112702 22.783824
353 1 1 5.707754 15.955534 22.490899
354 1 1 5.620870 15.625077 22.324618
355 1 1 5.457486 15.289260 22.254387
356 1 1 5.374896 15.168792 21.903578
357 1 1 5.500574 15.359700 21.600001
358 1 1 5.794897 15.598141 21.569667
359 1 1 5.869186 15.923102 21.387236
360 1 1 5.753368 16.283183 21.423679
361 1 1 5.429703 16.354570 21.237818
362 1 1 5.106684 16.239217 21.401381
363 1 1 5.087813 15.978934 21.677599
364 1 1 4.797363 15.751552 21.768903
365 1 1 4.727152 15.478837 22.024043
366 1 1 4.525436 15.159568 22.066211
367 1 1 4.304343 14.915105 22.255303
368 1 1 4.101277 14.593914 22.256179
369 1 1 4.032648 14.478922 21.900558
370 1 1 4.372235 14.485977 21.730174
371 1 1 4.339931 14.473179 21.351766
372 1 1 4.448943 14.589207 21.006725
373 1 1 4.622592 14.354011 20.763973
374 1 1 4.953292 14.224731 20.628606
375 1 1 5.323169 14.201082 20.544750
376 1 1 5.498550 14.538177 20.547629
377 1 1 5.542817 14.745714 20.862857
378 1 1 5.553146 14.595112 21.211587
379 1 1 5.219190 14.425520 21.275718
380 1 1 4.936673 14.431471 21.529781
381 1 1 5.094754 14.410236 21.874686
382 1 1 4.890650 14.300334 22.175789
383 1 1 4.831954 13.930200 22.238684
384 1 1 4.467970 13.828393 22.199306
385 1 1 4.088207 13.815818 22.194599
386 1 1 3.744031 13.973500 22.161740
387 1 1 3.536170 14.134354 22.436184
388 1 1 3.192805 14.252862 22.547793
389 1 1 2.978641 14.214696 22.859365
390 1 1 2.782098 13.893902 22.912866
391 1 1 2.689163 13.664137 22.624819
392 1 1 2.411495 13.567352 22.384125
393 1 1 2.239198 13.246180 22.276599
394 1 1 2.373844 12.923479 22.127823
395 1 1 2.240920 12.594080 22.262833
396 1 1 2.133319 12.342754 21.998907
397 1 1 1.805689 12.251354 21.829482
398 1 1 1.508429 12.461431 21.720375
399 1 1 1.301426 12.776240 21.769817
400 1 1 1.016181 12.743429 22.018732
401 1 1 0.886549 12.608098 22.349309
402 1 1 0.564221 12.671808 22.540217
403 1 1 0.500204 12.949295 22.791816
404 1 1 0.210353 13.162146 22.669012
405 1 1 36.432234 12.988376 22.460203
406 1 1 36.437411 12.853832 22.815549
407 1 1 36.366865 13.101286 23.095173
408 1 1 36.358080 13.425931 23.292476
409 1 1 0.080320 13.430194 23.609260
410 1 1 0.155905 13.451998 23.237492
411 1 1 0.512777 13.517183 23.124385
412 1 1 0.587127 13.667540 22.783408
413 1 1 0.954538 13.593929 22.720237
414 1 1 1.123505 13.318961 22.920844
415 1 1 1.442858 13.313800 23.126724
416 1 1 1.626747 13.481498 23.413887
417 1 1 1.577573 13.689700 23.727947
418 1 1 1.382618 13.879018 23.993562
419 1 1 1.276508 13.772973 24.342697
420 1 1 0.914993 13.808167 24.454358
421 1 1 0.731528 14.012491 24.191694
422 1 1 0.802427 14.375887 24.106158
423 1 1 0.755299 14.740971 24.200458
424 1 1 0.797770 15.009550 24.465904
425 1 1 0.511015 15.258234 24.447784
426 1 1 0.330486 15.487295 24.204186
427 1 1 0.113995 15.674875 23.954495
428 1 1 36.343366 15.438248 23.807087
429 1 1 36.397962 15.748376 23.594390
430 1 1 36.302485 16.102581 23.693499
431 1 1 36.167792 16.457909 23.693725
432 1 1 36.317275 16.758832 23.871208
433 1 1 36.295775 17.110753 23.729472
434 1 1 0.091998 17.358280 23.780252
435 1 1 0.097437 17.115395 24.072446
436 1 1 0.197460 16.813040 24.279755
437 1 1 0.527475 16.644094 24.196404
438 1 1 0.883997 16.565433 24.091026
439 1 1 1.056448 16.804499 23.851217
440 1 1 1.247362 17.128043 23.908416
441 1 1 1.566481 17.295333 23.787681
442 1 1 1.465699 17.588733 23.568229
443 1 1 1.387906 17.941425 23.450091
444 1 1 1.026946 18.046560 23.394828
445 1 1 0.680079 18.190757 23.452195
446 1 1 0.709383 18.453287 23.725360
447 1 1 0.652639 18.717460 23.992554
448 1 1 0.562486 18.963204 24.268023
449 1 1 0.826298 19.086683 24.512064
450 1 1 0.918551 19.453539 24.548210
451 1 1 13.682021 24.130910 7.383501
452 1 1 13.604387 24.205628 7.747905
453 1 1 13.345986 24.100042 8.005744
454 1 1 13.154052 24.038869 8.327954
455 1 1 13.169952 24.357292 8.534724
456 1 1 13.048718 24.501689 8.864651
457 1 1 12.787566 24.325826 9.077422
458 1 1 12.634675 23.997615 8.962088
459 1 1 12.357494 23.765220 8.845628
460 1 1 12.158871 23.735258 8.523058
461 1 1 12.369553 23.510049 8.301036
462 1 1 12.738268 23.531930 8.211758
463 1 1 12.971886 23.438861 8.496645
464 1 1 13.239606 23.373397 8.758257
465 1 1 13.157559 23.334163 9.127213
466 1 1 12.992086 23.075327 9.350870
467 1 1 12.983245 23.014605 9.725883
468 1 1 12.677246 22.806145 9.811378
469 1 1 12.620223 22.550008 10.086227
470 1 1 12.321642 22.385500 10.254116
471 1 1 12.286378 22.183210 10.573858
472 1 1 12.350115 22.000210 10.900735
473 1 1 12.628518 21.748011 10.843402
474 1 1 12.821380 21.881190 10.544290
475 1 1 13.015074 21.995437 10.237973
476 1 1 13.125074 21.988576 9.874307
477 1 1 13.231691 21.630752 9.803634
478 1 1 13.434104 21.461367 10.077016
479 1 1 13.814050 21.459926 10.070791
480 1 1 14.188618 21.435025 10.129773
481 1 1 14.376340 21.178978 10.338580
482 1 1 14.265874 20.826229 10.426702
483 1 1 14.412847 20.553113 10.207143
484 1 1 14.723936 20.397398 10.360040
485 1 1 15.028319 20.194814 10.463532
486 1 1 15.403769 20.183580 10.521070
487 1 1 15.750291 20.038110 10.464842
488 1 1 15.862307 19.880289 10.137817
489 1 1 15.992354 19.537416 10.038188
490 1 1 16.272540 19.344774 9.868529
491 1 1 16.631769 19.222093 9.851085
492 1 1 16.822073 19.494294 9.666448
493 1 1 17.177235 19.448738 9.539229
494 1 1 17.338642 19.732518 9.344764
495 1 1 17.210073 19.986754 9.093301
496 1 1 16.956103 20.192284 9.287353
497 1 1 16.579233 20.157951 9.252847
498 1 1 16.351748 19.870366 9.153119
499 1 1 16.267932 19.525742 9.289533
500 1 1 16.502189 19.251993 9.168763
501 1 1 16.438106 19.169062 8.803502
502 1 1 16.532648 18.909392 8.542670
503 1 1 16.461691 18.537827 8.578787
504 1 1 16.530024 18.378687 8.917025
505 1 1 16.610733 18.167337 9.222341
506 1 1 16.441511 17.954537 9.487821
507 1 1 16.392772 17.661009 9.724181
508 1 1 16.335803 17.285883 9.745029
509 1 1 16.615033 17.060196 9.620546
510 1 1 16.818107 16.863086 9.874138
511 1 1 17.195390 16.907337 9.884093
512 1 1 17.479257 16.772508 9.670456
513 1 1 17.778785 16.559510 9.766967
514 1 1 18.126787 16.426833 9.691525
515 1 1 18.434748 16.209392 9.739265
516 1 1 18.552720 15.897824 9.556486
517 1 1 18.613975 15.750595 9.211563
518 1 1 18.684807 15.517301 8.920090
519 1 1 18.766165 15.418368 8.562328
520 1 1 18.770268 15.388999 8.183487
521 1 1 18.807733 15.594947 7.866341
522 1 1 18.807502 15.931973 7.690804
523 1 1 19.112437 16.155990 7.725886
524 1 1 19.413394 15.955972 7.608337
525 1 1 19.684437 15.705469 7.698801
526 1 1 20.050522 15.609573 7.664365
527 1 1 20.250587 15.766383 7.381904
528 1 1 20.578471 15.575396 7.361516
529 1 1 20.849195 15.322264 7.277655
530 1 1 21.115210 15.449243 7.037837
531 1 1 21.323308 15.689519 6.829600
532 1 1 21.194024 16.034197 6.735352
533 1 1 21.102321 16.398576 6.678622
534 1 1 20.817148 16.642767 6.619906
535 1 1 20.564879 16.894812 6.488629
536 1 1 20.250423 16.907254 6.275644
537 1 1 19.992320 17.162659 6.387677
538 1 1 19.765692 17.465661 6.422742
539 1 1 19.772405 17.678456 6.107983
540 1 1 19.630544 17.675919 5.755465
541 1 1 19.823738 17.749323 5.436579
542 1 1 20.186114 17.739649 5.322604
543 1 1 20.464874 17.910322 5.516417
544 1 1 20.686049 18.210641 5.443686
545 1 1 20.653560 18.301925 5.076246
546 1 1 20.500605 18.091440 4.799297
547 1 1 20.184585 18.169134 4.603096
548 1 1 19.856072 17.979516 4.580202
549 1 1 19.553181 18.016735 4.353769
550 1 1 19.407707 18.356274 4.442937
551 1 1 19.195871 18.662041 4.520599
552 1 1 19.350014 18.958115 4.338994
553 1 1 19.168449 19.045612 4.016847
554 1 1 19.096075 18.867998 3.688800
555 1 1 19.384273 18.679348 3.528323
556 1 1 19.612427 18.381122 3.469952
557 1 1 19.796326 18.215349 3.181680
558 1 1 20.074583 18.210262 2.922939
559 1 1 20.361968 18.384178 2.745279
560 1 1 20.381106 18.681422 2.509312
561 1 1 20.247211 18.996200 2.343823
562 1 1 20.254878 19.106850 1.980370
563 1 1 20.130060 19.401443 1.775345
564 1 1 19.987437 19.528203 1.446726
565 1 1 19.774032 19.737246 1.211866
566 1 1 19.793778 20.114596 1.171652
567 1 1 19.657279 20.331592 0.891151
568 1 1 19.587005 20.500777 0.558228
569 1 1 19.546571 20.872513 0.625882
570 1 1 19.386021 21.216893 0.620794
571 1 1 19.298280 21.329625 0.268667
572 1 1 19.033268 21.164873 0.051814
573 1 1 19.202025 21.388555 36.282721
574 1 1 19.420574 21.581402 36.038905
575 1 1 19.428401 21.907393 35.843794
576 1 1 19.366637 21.837323 35.475453
577 1 1 19.431397 22.107215 35.215906
578 1 1 19.654421 22.240481 34.938597
579 1 1 19.889385 22.233139 34.640037
580 1 1 20.194052 22.012740 34.694831
581 1 1 20.271389 22.020947 35.066787
582 1 1 20.211339 22.359873 35.227793
583 1 1 19.963535 22.538779 35.453594
584 1 1 19.967629 22.916223 35.409788
585 1 1 20.008905 23.206424 35.651614
586 1 1 19.736808 23.365065 35.864209
587 1 1 19.772170 23.693046 36.052831
588 1 1 19.765617 23.988545 36.291655
589 1 1 19.600887 24.275257 36.104411
590 1 1 19.543908 24.517069 35.816868
591 1 1 19.369030 24.487598 35.480789
592 1 1 19.117610 24.391066 35.212705
593 1 1 19.249463 24.402254 34.856490
594 1 1 19.500457 24.686934 34.837546
595 1 1 19.858066 24.573205 34.777699
596 1 1 20.078530 24.283414 34.886402
597 1 1 20.221437 23.967244 34.731438
598 1 1 20.093321 23.707552 34.485376
599 1 1 20.165668 23.334504 34.486348
600 1 1 20.338801 23.084715 34.258247
601 1 1 20.605919 22.844588 34.382291
602 1 1 20.698195 22.545723 34.598080
603 1 1 20.784474 22.362634 34.919692
604 1 1 21.145986 22.454396 34.992418
605 1 1 21.165695 22.830072 34.938763
606 1 1 20.856400 23.050339 34.953539
607 1 1 20.513578 23.092237 35.112026
608 1 1 20.382157 23.443483 35.173301
609 1 1 20.476903 23.678082 35.456826
610 1 1 20.527026 23.717126 35.831477
611 1 1 20.425031 23.493878 36.121576
612 1 1 20.277882 23.218417 36.338068
613 1 1 19.937124 23.058687 36.390701
614 1 1 19.638560 23.253170 0.035155
615 1 1 19.853212 22.977032 0.183723
616 1 1 20.148404 22.737833 0.176949
617 1 1 20.250359 22.452163 0.405855
618 1 1 20.045333 22.310769 0.692860
619 1 1 20.196727 22.313078 1.041392
620 1 1 20.237274 22.093326 1.348744
621 1 1 20.487491 21.972410 1.607917
622 1 1 20.444641 21.623028 1.751081
623 1 1 20.199064 21.591144 2.039310
624 1 1 20.308422 21.318650 2.280531
625 1 1 20.079936 21.109694 2.500830
626 1 1 20.179560 21.071045 2.865496
627 1 1 20.084467 20.749318 3.043958
628 1 1 19.905776 20.461355 3.215850
629 1 1 19.745214 20.117568 3.195100
630 1 1 19.895838 19.802434 3.045424
631 1 1 19.994689 19.443846 2.967686
632 1 1 20.252498 19.258837 3.176747
633 1 1 20.313929 18.889345 3.112701
634 1 1 20.313095 18.608800 3.369009
635 1 1 20.306271 18.268159 3.537287
636 1 1 20.540254 18.024736 3.362939
637 1 1 20.821217 17.769069 3.372649
638 1 1 21.017269 17.649583 3.675447
639 1 1 20.785216 17.435084 3.886495
640 1 1 20.630978 17.428385 4.233721
641 1 1 20.832605 17.578485 4.518706
642 1 1 20.779480 17.563012 4.894656
643 1 1 20.906678 17.274650 5.106949
644 1 1 20.850794 17.225669 5.479612
645 1 1 21.008523 16.951448 5.690146
646 1 1 20.817751 16.672909 5.864566
647 1 1 20.620244 16.461949 5.617814
648 1 1 20.553503 16.166588 5.388233
649 1 1 20.490233 16.149330 5.013935
650 1 1 20.795866 16.148838 4.788130
651 1 1 21.013798 15.868789 4.924065
652 1 1 21.249732 15.680608 4.693147
653 1 1 21.203275 15.659130 4.316609
654 1 1 21.495542 15.546877 4.101251
655 1 1 21.775960 15.304503 4.017458
656 1 1 21.915516 15.075903 4.287025
657 1 1 21.860161 14.710438 4.198870
658 1 1 21.962329 14.357684 4.101267
659 1 1 22.136585 14.161173 3.826643
660 1 1 22.285463 14.301240 3.506305
661 1 1 22.253780 14.500161 3.184083
662 1 1 22.107709 14.662368 2.873033
663 1 1 21.810884 14.895390 2.917705
664 1 1 21.595971 15.079100 3.171600
665 1 1 21.372332 15.299657 3.385470
666 1 1 21.009737 15.307730 3.272069
667 1 1 20.651799 15.369110 3.160209
668 1 1 20.311683 15.215192 3.231131
669 1 1 19.996476 15.019819 3.314041
670 1 1 19.734297 14.784837 3.457030
671 1 1 19.566404 14.673417 3.779206
672 1 1 19.259315 14.859899 3.902984
673 1 1 19.043023 15.150532 4.017659
674 1 1 19.200009 15.489331 3.947155
675 1 1 19.504300 15.565128 4.161776
676 1 1 19.832627 15.752005 4.202746
677 1 1 20.131379 15.986797 4.207147
678 1 1 20.465313 16.032819 4.031732
679 1 1 20.816350 16.008686 3.888240
680 1 1 21.017396 16.283784 4.056470
681 1 1 21.177184 16.521396 4.306287
682 1 1 21.260483 16.886219 4.240217
683 1 1 21.468388 17.169947 4.096433
684 1 1 21.729503 17.410319 4.232228
685 1 1 21.748356 17.493761 4.602474
686 1 1 21.865218 17.541880 4.960842
687 1 1 22.237654 17.518417 5.032540
688 1 1 22.602133 17.473288 4.934975
689 1 1 22.781273 17.261221 4.675482
690 1 1 23.143471 17.375365 4.689035
691 1 1 23.387482 17.654390 4.605349
692 1 1 23.718418 17.564803 4.769226
693 1 1 24.073884 17.541497 4.901517
694 1 1 24.346335 17.277876 4.875552
695 1 1 24.687547 17.359906 4.729794
696 1 1 24.815505 17.093188 4.491283
697 1 1 25.096276 17.160168 4.244136
698 1 1 25.032081 17.206368 3.872457
699 1 1 24.873777 17.156325 3.530645
700 1 1 24.663955 16.999667 3.255268
701 1 1 24.342203 16.801932 3.297416
702 1 1 24.188753 16.480655 3.164621
703 1 1 23.910569 16.228948 3.104147
704 1 1 23.730771 15.945996 2.925233
705 1 1 23.514920 15.824749 2.636949
706 1 1 23.650867 15.507536 2.477907
707 1 1 23.905429 15.277416 2.641132
708 1 1 24.234035 15.435660 2.747794
709 1 1 24.586553 15.468093 2.609668
710 1 1 24.928197 15.452040 2.444072
711 1 1 25.265352 15.533412 2.599328
712 1 1 25.555109 15.773509 2.546465
713 1 1 25.391328 16.115786 2.525914
714 1 1 25.186846 16.426076 2.446497
715 1 1 24.936187 16.671308 2.300103
716 1 1 24.783446 16.848655 2.000740
717 1 1 24.701791 16.808390 1.631807
718 1 1 24.559592 16.522420 1.425893
719 1 1 24.484549 16.194672 1.248834
720 1 1 24.223130 15.995775 1.439884
721 1 1 23.999581 15.744063 1.263626
722 1 1 23.814858 15.498056 1.486690
723 1 1 23.916028 15.248409 1.754722
724 1 1 24.193069 15.230627 2.014206
725 1 1 24.353434 15.574974 2.003831
726 1 1 24.353482 15.933102 2.130894
727 1 1 24.357584 16.274961 2.296771
728 1 1 24.007530 16.335028 2.431880
729 1 1 23.792899 16.648036 2.412925
730 1 1 23.685587 17.012525 2.418559
731 1 1 23.490088 17.100005 2.104668
732 1 1 23.130444 17.202010 2.036471
733 1 1 22.790790 17.345142 1.944010
734 1 1 22.539525 17.252462 2.213596
735 1 1 22.591847 17.394496 2.562148
736 1 1 22.718538 17.155238 2.828803
737 1 1 22.669233 16.779993 2.794750
738 1 1 22.570381 16.637061 2.456817
739 1 1 22.275624 16.486079 2.270478
740 1 1 21.943288 16.317224 2.196715
741 1 1 21.747071 16.522415 1.944137
742 1 1 21.784924 16.596101 1.573276
743 1 1 22.067128 16.722021 1.352131
744 1 1 22.445646 16.732284 1.384050
745 1 1 22.694404 16.691966 1.668468
746 1 1 22.737059 16.387770 1.892176
747 1 1 23.053851 16.178656 1.909915
748 1 1 23.342186 15.997831 1.740902
749 1 1 23.350451 15.985898 1.361179
750 1 1 23.452745 16.153815 1.036003
751 1 1 23.281445 16.317196 0.738743
752 1 1 22.982333 16.219693 0.525612
753 1 1 22.891256 15.850952 0.513986
754 1 1 22.913335 15.471637 0.519681
755 1 1 23.039251 15.213755 0.270599
756 1 1 23.325344 15.368433 0.074065
757 1 1 23.418059 15.518517 36.225089
758 1 1 23.153203 15.623844 36.476400
759 1 1 22.808718 15.741248 36.367101
760 1 1 22.580608 15.449165 36.283112
761 1 1 22.277752 15.525588 0.011939
762 1 1 22.047397 15.616151 0.300270
763 1 1 21.967479 15.539123 36.424436
764 1 1 21.708111 15.472038 36.154941
765 1 1 21.423737 15.277899 35.994187
766 1 1 21.472066 14.911188 36.081289
767 1 1 21.292920 14.577335 36.110427
768 1 1 21.300436 14.248905 35.919437
769 1 1 21.300231 13.919236 35.730444
770 1 1 21.373404 13.662498 35.460016
771 1 1 21.183936 13.765113 35.147010
772 1 1 21.005255 13.492855 34.951183
773 1 1 20.868771 13.615180 34.618303
774 1 1 21.058134 13.863749 34.402074
775 1 1 20.897974 14.208119 34.389524
776 1 1 20.569545 14.252645 34.203643
777 1 1 20.464323 14.489214 33.925500
778 1 1 20.395760 14.743272 33.651358
779 1 1 20.182266 15.056102 33.620413
780 1 1 19.884576 15.208223 33.439748
781 1 1 19.550886 15.253994 33.263806
782 1 1 19.291595 15.373723 33.013141
783 1 1 19.233950 15.197810 32.681280
784 1 1 18.865001 15.170476 32.594507
785 1 1 18.762431 15.490178 32.416545
786 1 1 18.674337 15.859058 32.392740
787 1 1 18.810354 15.979396 32.058946
788 1 1 19.100927 15.960793 31.814771
789 1 1 18.996377 15.962081 31.449439
790 1 1 18.914737 15.682072 31.205861
791 1 1 19.007267 15.774751 30.849141
792 1 1 19.055221 15.693537 30.481032
793 1 1 19.146018 15.676288 30.112442
794 1 1 19.072584 15.777598 29.753633
795 1 1 18.853278 15.781106 29.443323
796 1 1 18.877864 16.033372 29.160202
797 1 1 18.798583 16.178612 28.818120
798 1 1 18.738392 16.402629 28.517133
799 1 1 18.534043 16.504674 28.213441
800 1 1 18.649238 16.739174 27.937507
801 1 1 18.652445 16.549478 27.608258
802 1 1 19.009209 16.540667 27.477713
803 1 1 19.099429 16.563675 27.109296