LAMMPS data file for polymer system

27000 atoms
26940 bonds

1 atom types
1 bond types

0.0 36.487593149437835 xlo xhi
0.0 36.487593149437835 ylo yhi
0.0 36.487593149437835 zlo zhi

Masses

1 5.65487

Atoms

1 1 1 33.203507 18.625220 21.238050
2 1 1 33.494382 18.421502 21.373294
3 1 1 33.857123 18.442842 21.262101
4 1 1 34.068324 18.651951 21.025315
5 1 1 34.320444 18.874591 20.848491
6 1 1 34.599401 19.132541 20.841787
7 1 1 34.772540 19.188310 21.175423
8 1 1 34.779007 19.446870 21.453820
9 1 1 34.728090 19.570458 21.809535
10 1 1 34.731857 19.609717 22.187483
11 1 1 34.688195 19.465298 22.536248
12 1 1 34.872302 19.227608 22.768644
13 1 1 34.736835 19.025220 23.060342
14 1 1 34.805617 18.653658 23.100482
15 1 1 34.564373 18.464421 22.876004
16 1 1 34.420013 18.118690 22.812518
17 1 1 34.298198 17.941136 23.125624
18 1 1 34.516786 17.914866 23.435349
19 1 1 34.333850 17.683056 23.674511
20 1 1 34.041854 17.472663 23.796468
21 1 1 34.109523 17.098744 23.794126
22 1 1 34.424891 16.970750 23.625128
23 1 1 34.766153 17.126764 23.565129
24 1 1 35.057829 16.965953 23.748063
25 1 1 35.193581 17.206961 24.008613
26 1 1 35.489250 17.098493 24.221251
27 1 1 35.862431 17.133862 24.158924
28 1 1 36.129462 16.870802 24.221323
29 1 1 36.134300 16.490881 24.227405
30 1 1 36.118199 16.277670 24.541542
31 1 1 36.105553 15.903660 24.475542
32 1 1 35.792589 15.799650 24.286770
33 1 1 35.737617 15.886227 23.920870
34 1 1 35.545778 15.975660 23.605276
35 1 1 35.256750 16.192540 23.722857
36 1 1 34.889837 16.291155 23.715745
37 1 1 34.531865 16.242945 23.833779
38 1 1 34.285710 16.057700 23.611312
39 1 1 34.287283 16.151068 23.242964
40 1 1 34.388831 16.495682 23.119153
41 1 1 34.289624 16.845818 23.009782
42 1 1 33.956360 17.012208 22.934615
43 1 1 33.717326 17.150995 22.673846
44 1 1 33.361445 17.283863 22.683576
45 1 1 33.347248 17.528972 22.973611
46 1 1 33.271127 17.598416 23.339374
47 1 1 32.912444 17.586670 23.464308
48 1 1 32.858609 17.456687 23.817304
49 1 1 32.997507 17.111997 23.896650
50 1 1 32.902197 16.747119 23.849959
51 1 1 33.039397 16.627737 23.516306
52 1 1 33.251904 16.312715 23.514864
53 1 1 33.278799 16.179962 23.159824
54 1 1 33.453481 16.015630 22.865068
55 1 1 33.226694 15.737658 22.739769
56 1 1 33.222420 15.603926 22.384105
57 1 1 33.055176 15.547934 22.047513
58 1 1 33.103948 15.714229 21.709331
59 1 1 33.305574 15.468963 21.500546
60 1 1 33.440581 15.121246 21.573116
61 1 1 33.575822 14.975889 21.249108
62 1 1 33.901230 14.900286 21.068017
63 1 1 34.032510 15.117099 20.784896
64 1 1 34.126731 15.462512 20.912223
65 1 1 33.834965 15.675642 21.029904
66 1 1 33.841605 16.019088 21.192386
67 1 1 34.151920 16.235233 21.229619
68 1 1 34.387441 16.463901 21.421037
69 1 1 34.238117 16.514285 21.766817
70 1 1 33.910651 16.389962 21.914160
71 1 1 33.805853 16.152465 22.191672
72 1 1 33.835149 15.776082 22.148344
73 1 1 33.970699 15.550665 21.874094
74 1 1 34.306452 15.373494 21.857346
75 1 1 34.472597 15.060055 21.721143
76 1 1 34.669422 14.846817 21.966479
77 1 1 34.600149 14.511212 22.130705
78 1 1 34.323849 14.292306 22.272616
79 1 1 34.050093 14.077194 22.120351
80 1 1 33.731208 14.220583 21.971515
81 1 1 33.449135 14.289619 21.726426
82 1 1 33.081454 14.246328 21.812080
83 1 1 33.035739 14.149275 22.176622
84 1 1 33.279691 14.137623 22.467744
85 1 1 33.481284 14.277107 22.758095
86 1 1 33.667427 14.188057 23.077190
87 1 1 33.614544 14.089407 23.440331
88 1 1 33.698967 14.109115 23.810310
89 1 1 33.896602 13.818552 23.954925
90 1 1 33.867241 13.804420 24.333525
91 1 1 33.713735 13.500145 24.501611
92 1 1 33.599981 13.228943 24.260966
93 1 1 33.577283 13.305252 23.889400
94 1 1 33.614499 13.359895 23.515195
95 1 1 33.677976 13.069915 23.277957
96 1 1 33.514861 12.894218 22.983128
97 1 1 33.153826 12.821378 22.889600
98 1 1 32.922995 12.993985 22.641963
99 1 1 32.776946 13.322104 22.766090
100 1 1 32.821426 13.441384 23.124132
101 1 1 32.869253 13.534534 23.489420
102 1 1 33.154220 13.720030 23.659083
103 1 1 33.085531 14.061704 23.810544
104 1 1 33.018546 14.430277 23.874320
105 1 1 32.702934 14.521886 23.683540
106 1 1 32.579420 14.203460 23.516959
107 1 1 32.437242 14.202648 23.164560
108 1 1 32.385107 14.217139 22.788433
109 1 1 32.438264 14.190972 22.413080
110 1 1 32.458197 13.844236 22.258884
111 1 1 32.438169 13.464772 22.261335
112 1 1 32.185636 13.238386 22.089939
113 1 1 31.908286 13.118242 22.320248
114 1 1 31.614528 13.358369 22.299147
115 1 1 31.599212 13.737522 22.278945
116 1 1 31.610534 14.110104 22.352802
117 1 1 31.658623 14.456538 22.204241
118 1 1 31.653306 14.788096 22.018658
119 1 1 31.417700 14.983106 21.793134
120 1 1 31.216703 15.266553 21.639324
121 1 1 31.032216 15.496418 21.879171
122 1 1 31.075932 15.805518 22.095842
123 1 1 30.996376 15.870672 22.461664
124 1 1 31.257133 15.722071 22.694738
125 1 1 31.596421 15.884654 22.641353
126 1 1 31.759899 16.164489 22.442940
127 1 1 32.117317 16.255806 22.351764
128 1 1 32.222907 16.422197 22.026856
129 1 1 32.325727 16.394682 21.662067
130 1 1 32.156707 16.161132 21.414506
131 1 1 31.926131 16.320463 21.157897
132 1 1 31.947059 16.246162 20.785820
133 1 1 31.691822 16.280546 20.506406
134 1 1 31.738448 16.443540 20.166320
135 1 1 31.848286 16.250884 19.857743
136 1 1 31.792484 16.290506 19.483957
137 1 1 31.908458 16.416815 19.144846
138 1 1 31.935013 16.503484 18.775816
139 1 1 32.227617 16.671448 18.600969
140 1 1 32.248712 17.046904 18.655631
141 1 1 32.094567 17.125662 18.993916
142 1 1 31.828765 17.361853 19.127945
143 1 1 31.728370 17.627860 19.380058
144 1 1 31.748053 17.731938 19.744997
145 1 1 31.751557 17.908342 20.081552
146 1 1 31.774750 18.249496 20.247309
147 1 1 31.464885 18.469432 20.250681
148 1 1 31.133799 18.650508 20.206026
149 1 1 31.082597 18.986386 20.376216
150 1 1 31.288421 19.288231 20.480743
151 1 1 31.103349 19.619295 20.504096
152 1 1 31.113975 19.902806 20.756897
153 1 1 31.147312 20.242576 20.923764
154 1 1 31.496027 20.379444 20.860003
155 1 1 31.774259 20.486625 21.095586
156 1 1 31.817427 20.860270 21.149673
157 1 1 32.119521 21.002584 21.331018
158 1 1 32.436119 21.125100 21.501767
159 1 1 32.552470 21.458979 21.362528
160 1 1 32.413315 21.480924 21.009606
161 1 1 32.368163 21.738212 20.733627
162 1 1 32.248735 21.559842 20.420065
163 1 1 31.927186 21.513425 20.222958
164 1 1 31.733207 21.837572 20.264201
165 1 1 31.824401 22.144700 20.468544
166 1 1 31.639179 22.464494 20.380087
167 1 1 31.439853 22.379889 20.067819
168 1 1 31.208727 22.265181 19.788852
169 1 1 31.261395 21.972425 19.552378
170 1 1 31.224447 21.602325 19.474526
171 1 1 31.458194 21.533188 19.183009
172 1 1 31.741836 21.500093 18.932306
173 1 1 31.786489 21.560442 18.559795
174 1 1 31.796013 21.560761 18.179914
175 1 1 31.529400 21.576250 17.909585
176 1 1 31.368480 21.433156 17.596489
177 1 1 31.568296 21.439036 17.273319
178 1 1 31.648833 21.763521 17.092700
179 1 1 31.399672 21.791463 16.807151
180 1 1 31.078679 21.698574 16.626223
181 1 1 30.818223 21.483013 16.452741
182 1 1 30.469463 21.525303 16.307904
183 1 1 30.233529 21.489364 16.012195
184 1 1 30.251787 21.499344 15.632765
185 1 1 30.367572 21.632713 15.296304
186 1 1 30.714265 21.665693 15.144263
187 1 1 30.960482 21.950148 15.197763
188 1 1 31.322920 22.047396 15.257611
189 1 1 31.653332 22.156007 15.410685
190 1 1 31.760634 22.440052 15.639169
191 1 1 32.110479 22.408692 15.784169
192 1 1 32.188335 22.053263 15.893750
193 1 1 32.301806 21.778337 15.657233
194 1 1 32.529342 21.634633 15.388949
195 1 1 32.617475 21.272381 15.462474
196 1 1 32.680250 20.904229 15.532644
197 1 1 32.764899 20.536513 15.577581
198 1 1 33.029293 20.331393 15.397522
199 1 1 33.048409 20.339244 15.018084
200 1 1 33.215522 20.593596 14.790537
201 1 1 33.565206 20.509223 14.668051
202 1 1 33.773695 20.409289 14.366479
203 1 1 33.605168 20.549327 14.056014
204 1 1 33.711984 20.836620 13.831397
205 1 1 33.747926 21.214873 13.837100
206 1 1 34.012078 21.485238 13.798029
207 1 1 34.014373 21.772883 14.046334
208 1 1 33.703886 21.990371 14.019937
209 1 1 33.755787 22.302303 14.230662
210 1 1 33.535084 22.611472 14.240894
211 1 1 33.304700 22.817799 14.461693
212 1 1 33.405405 23.040930 14.752332
213 1 1 33.616879 22.953252 15.055633
214 1 1 33.875998 23.178740 15.218152
215 1 1 33.732536 23.408929 15.484294
216 1 1 33.466397 23.571952 15.701074
217 1 1 33.265170 23.586653 16.023086
218 1 1 33.147411 23.807120 16.309315
219 1 1 33.212640 23.965951 16.648310
220 1 1 33.535031 24.040824 16.835013
221 1 1 33.683633 23.949436 17.172601
222 1 1 33.663377 23.573086 17.221084
223 1 1 33.385789 23.321077 17.159146
224 1 1 33.446868 22.950550 17.101019
225 1 1 33.208390 22.655715 17.076517
226 1 1 32.930376 22.399078 17.111814
227 1 1 32.743739 22.157004 17.337572
228 1 1 32.766699 21.790421 17.240157
229 1 1 32.777244 21.561831 16.936783
230 1 1 32.734495 21.612722 16.562641
231 1 1 32.820294 21.923195 16.361034
232 1 1 32.926479 22.133458 16.062849
233 1 1 33.295341 22.056120 16.014276
234 1 1 33.569682 22.278365 16.154790
235 1 1 33.885683 22.487043 16.186352
236 1 1 34.259252 22.542448 16.144201
237 1 1 34.634108 22.599709 16.119623
238 1 1 34.804899 22.789495 15.838177
239 1 1 34.822647 23.142680 15.699090
240 1 1 34.535884 23.389061 15.737344
241 1 1 34.498769 23.673035 15.487582
242 1 1 34.479220 23.633368 15.110164
243 1 1 34.420132 23.760267 14.756887
244 1 1 34.120821 23.600008 14.586211
245 1 1 34.082613 23.239526 14.472228
246 1 1 33.763295 23.213951 14.267822
247 1 1 33.661662 23.360106 13.932099
248 1 1 33.824167 23.320411 13.590901
249 1 1 34.152089 23.510340 13.619083
250 1 1 34.516959 23.606033 13.665044
251 1 1 34.593345 23.541379 14.031630
252 1 1 34.868991 23.286023 14.088315
253 1 1 35.225908 23.168292 14.032195
254 1 1 35.322733 22.836270 13.874760
255 1 1 35.350081 22.888479 13.499358
256 1 1 35.382316 22.935818 13.123699
257 1 1 35.678820 23.122213 12.976247
258 1 1 36.038289 23.244226 12.959076
259 1 1 36.269615 22.942757 12.961272
260 1 1 36.441500 22.774616 13.255524
261 1 1 0.062656 22.991443 13.548029
262 1 1 0.194563 22.732951 13.302708
263 1 1 0.392952 22.649292 12.989590
264 1 1 0.552347 22.934218 12.795140
265 1 1 0.716498 22.927110 12.452497
266 1 1 0.750370 22.783118 12.102470
267 1 1 0.963406 22.482110 12.010765
268 1 1 1.169722 22.271156 11.771324
269 1 1 1.076538 22.111644 11.439250
270 1 1 1.227422 22.304785 11.148853
271 1 1 1.262176 22.622694 10.943606
272 1 1 1.197461 22.637919 10.569467
273 1 1 1.140728 22.603667 10.195290
274 1 1 1.476834 22.527872 10.035017
275 1 1 1.416612 22.323809 9.720165
276 1 1 1.445193 22.217591 9.356433
277 1 1 1.775334 22.204621 9.168714
278 1 1 2.130940 22.273329 9.283709
279 1 1 2.430595 22.234134 9.053338
280 1 1 2.679534 22.380786 8.806513
281 1 1 2.800981 22.178163 8.508864
282 1 1 2.527964 22.106617 8.254418
283 1 1 2.162657 22.205205 8.289504
284 1 1 2.024222 22.029633 8.596767
285 1 1 1.906790 21.682737 8.495413
286 1 1 2.085650 21.370131 8.374225
287 1 1 2.117928 21.024611 8.529062
288 1 1 1.944701 20.688225 8.493893
289 1 1 1.615508 20.540948 8.374136
290 1 1 1.329820 20.551239 8.123784
291 1 1 1.237300 20.677184 7.777406
292 1 1 1.251976 20.381785 7.538817
293 1 1 1.006358 20.281796 7.266651
294 1 1 0.934368 19.911376 7.311450
295 1 1 0.908732 19.532245 7.310022
296 1 1 1.132899 19.242073 7.210277
297 1 1 1.130208 19.202068 6.832398
298 1 1 1.450186 19.092581 6.659116
299 1 1 1.684501 19.389697 6.624214
300 1 1 1.959659 19.473941 6.376038
301 1 1 2.110193 19.317993 6.063916
302 1 1 2.131064 19.228933 5.695090
303 1 1 2.371408 19.387434 5.447074
304 1 1 2.517112 19.508566 5.117685
305 1 1 2.697202 19.677657 4.828936
306 1 1 2.599380 19.893795 4.532094
307 1 1 2.533961 20.074537 4.204294
308 1 1 2.475100 19.847816 3.905073
309 1 1 2.628895 19.914607 3.564066
310 1 1 2.948543 20.008998 3.381540
311 1 1 3.294484 20.070875 3.526095
312 1 1 3.409324 19.964329 3.872302
313 1 1 3.301904 19.601771 3.909893
314 1 1 3.493716 19.282152 3.983727
315 1 1 3.740590 19.222344 4.266351
316 1 1 3.653973 19.194218 4.635277
317 1 1 3.433821 19.475346 4.765277
318 1 1 3.629702 19.786310 4.861882
319 1 1 3.684437 19.963652 5.193474
320 1 1 3.804103 19.879334 5.544146
321 1 1 4.147617 19.802466 5.687286
322 1 1 4.474925 19.744923 5.871565
323 1 1 4.759574 19.979689 5.780681
324 1 1 4.667986 20.297453 5.593497
325 1 1 4.415352 20.580085 5.619858
326 1 1 4.196562 20.526050 5.925818
327 1 1 3.941590 20.746491 6.101303
328 1 1 3.716042 20.989628 6.286808
329 1 1 3.426131 20.927328 6.524443
330 1 1 3.137166 20.680695 6.532864
331 1 1 3.071885 20.532940 6.188907
332 1 1 2.800867 20.586115 5.927905
333 1 1 2.663434 20.490068 5.586896
334 1 1 2.346519 20.664984 5.471271
335 1 1 2.089505 20.468251 5.272174
336 1 1 2.150730 20.239240 4.975180
337 1 1 2.097835 20.220541 4.599344
338 1 1 1.810873 20.288852 4.359789
339 1 1 1.689834 20.239426 4.002988
340 1 1 1.652148 20.571288 3.821750
341 1 1 1.647816 20.667224 3.454085
342 1 1 1.477662 21.004381 3.411980
343 1 1 1.238378 21.125139 3.681352
344 1 1 0.874517 21.111057 3.790009
345 1 1 0.691650 21.345738 4.026408
346 1 1 0.566982 21.691560 3.930153
347 1 1 0.831957 21.840324 3.701992
348 1 1 0.797271 22.157823 3.496101
349 1 1 1.077717 22.412768 3.523550
350 1 1 1.455381 22.454454 3.517924
351 1 1 1.599094 22.160334 3.710901
352 1 1 1.864492 22.305939 3.940603
353 1 1 1.862125 22.332899 4.319638
354 1 1 1.573863 22.567407 4.399079
355 1 1 1.334553 22.441990 4.666289
356 1 1 1.201177 22.475579 5.020525
357 1 1 1.154591 22.832376 5.142694
358 1 1 0.859539 22.960748 5.344846
359 1 1 0.576516 23.131821 5.157677
360 1 1 0.438319 23.260709 4.827996
361 1 1 0.136759 23.184997 4.609525
362 1 1 36.302061 22.997254 4.682197
363 1 1 36.098569 22.737579 4.870770
364 1 1 35.750588 22.627300 4.976353
365 1 1 35.525443 22.366692 5.136956
366 1 1 35.304219 22.095331 5.284680
367 1 1 35.344207 21.725116 5.360456
368 1 1 35.026224 21.517500 5.346960
369 1 1 34.760653 21.249675 5.393238
370 1 1 34.736419 21.187814 5.767385
371 1 1 34.725251 21.111004 6.139373
372 1 1 34.377466 20.969820 6.198639
373 1 1 34.146184 20.718370 6.032262
374 1 1 34.186851 20.614347 5.669046
375 1 1 34.163392 20.749668 5.314733
376 1 1 34.043119 20.548907 5.015351
377 1 1 33.707917 20.665264 4.879333
378 1 1 33.460112 20.804240 5.131678
379 1 1 33.372740 20.640370 5.463209
380 1 1 33.238676 20.429425 5.749441
381 1 1 33.037242 20.108218 5.774952
382 1 1 33.027867 19.886780 6.083622
383 1 1 32.792147 19.795993 6.367513
384 1 1 32.891741 20.021378 6.656793
385 1 1 32.992584 20.375930 6.564470
386 1 1 32.891568 20.742079 6.575904
387 1 1 32.804767 21.102331 6.660070
388 1 1 32.827025 21.401509 6.426839
389 1 1 33.030880 21.472593 6.114125
390 1 1 33.100704 21.176976 5.885794
391 1 1 32.859864 21.068900 5.612452
392 1 1 32.499082 20.971193 5.543968
393 1 1 32.493373 20.661710 5.323542
394 1 1 32.365476 20.306637 5.279207
395 1 1 32.548868 19.977286 5.327120
396 1 1 32.282794 19.714949 5.396290
397 1 1 32.041805 19.639898 5.680352
398 1 1 31.682664 19.536918 5.749725
399 1 1 31.380188 19.418016 5.552823
400 1 1 31.525934 19.232284 5.255061
401 1 1 31.495484 19.104865 4.898358
402 1 1 31.339410 19.371842 4.677533
403 1 1 30.985669 19.481412 4.592316
404 1 1 30.829202 19.444951 4.247949
405 1 1 30.765564 19.510899 3.879166
406 1 1 30.406089 19.518908 3.756228
407 1 1 30.190778 19.817887 3.849249
408 1 1 29.848932 19.983272 3.863013
409 1 1 29.576590 19.746773 3.982587
410 1 1 29.581145 19.393016 3.843894
411 1 1 29.416844 19.272038 3.523317
412 1 1 29.200241 19.352240 3.221572
413 1 1 29.035977 19.109383 2.979832
414 1 1 28.913270 18.751438 3.014737
415 1 1 28.673714 18.659269 2.734527
416 1 1 28.336526 18.601318 2.899894
417 1 1 28.125323 18.522436 3.205788
418 1 1 28.055900 18.692921 3.538226
419 1 1 28.364203 18.733175 3.756695
420 1 1 28.370170 18.860542 4.114665
421 1 1 28.516710 19.205468 4.177532
422 1 1 28.769808 19.357008 3.937997
423 1 1 28.621130 19.693593 3.843100
424 1 1 28.372283 19.869187 3.615852
425 1 1 28.424262 19.713454 3.273149
426 1 1 28.352331 19.929901 2.969214
427 1 1 28.343658 20.080459 2.620420
428 1 1 28.077319 20.339768 2.541538
429 1 1 27.798926 20.301264 2.797301
430 1 1 27.553798 20.591630 2.797335
431 1 1 27.421254 20.608391 3.153075
432 1 1 27.245680 20.767654 3.450075
433 1 1 27.082632 20.479255 3.636197
434 1 1 26.851315 20.308266 3.884501
435 1 1 26.505078 20.250142 3.739100
436 1 1 26.155775 20.108383 3.786973
437 1 1 25.974499 19.980719 4.095584
438 1 1 25.732903 19.937303 4.385664
439 1 1 25.794535 19.692751 4.669910
440 1 1 25.824797 19.337112 4.800314
441 1 1 25.597791 19.098693 4.990115
442 1 1 25.394274 18.828971 4.816244
443 1 1 25.388701 18.585206 4.524786
444 1 1 25.721502 18.574138 4.341699
445 1 1 25.663145 18.757089 4.013792
446 1 1 25.409401 18.979369 3.838845
447 1 1 25.169924 19.141144 4.085583
448 1 1 25.234872 19.412501 4.343550
449 1 1 24.988048 19.701398 4.339428
450 1 1 24.823353 20.019970 4.465077
451 1 1 31.891534 1.798826 23.089344
452 1 1 32.164791 1.727977 23.343727
453 1 1 32.407224 1.436554 23.370165
454 1 1 32.761469 1.532933 23.272074
455 1 1 32.970554 1.486354 23.585943
456 1 1 32.748565 1.498574 23.894118
457 1 1 32.496495 1.558314 24.172132
458 1 1 32.502537 1.703682 24.523176
459 1 1 32.148147 1.811174 24.608341
460 1 1 31.961710 1.647498 24.896180
461 1 1 31.847462 1.484305 25.219778
462 1 1 31.978903 1.624860 25.547448
463 1 1 32.066056 1.927069 25.760694
464 1 1 32.423849 2.011993 25.856463
465 1 1 32.667250 2.189780 26.087867
466 1 1 32.668765 2.534796 26.247122
467 1 1 32.707667 2.910538 26.288410
468 1 1 33.026074 2.994157 26.478212
469 1 1 33.095780 2.876633 26.832795
470 1 1 33.051177 2.572897 27.056747
471 1 1 32.869665 2.309000 26.852268
472 1 1 32.797982 1.947615 26.945342
473 1 1 32.915824 1.594471 26.869170
474 1 1 33.118638 1.445427 27.153868
475 1 1 33.232040 1.633524 27.463964
476 1 1 33.258054 1.849287 27.775684
477 1 1 32.910925 1.978471 27.860615
478 1 1 32.541684 2.066396 27.878781
479 1 1 32.180565 1.956982 27.923745
480 1 1 31.991231 1.794671 27.637026
481 1 1 31.908415 1.981615 27.316724
482 1 1 31.692755 1.859585 27.028627
483 1 1 31.321011 1.781245 27.020292
484 1 1 31.003017 1.590488 26.937278
485 1 1 31.030038 1.477255 26.575549
486 1 1 30.857831 1.201007 26.379509
487 1 1 30.843254 1.015272 26.048314
488 1 1 31.175466 0.975364 25.868196
489 1 1 31.149162 1.187180 25.553804
490 1 1 31.062621 1.146776 25.186003
491 1 1 31.062341 1.384431 24.889490
492 1 1 31.105754 1.626396 24.599717
493 1 1 30.913403 1.532371 24.285774
494 1 1 30.895209 1.160614 24.209184
495 1 1 30.799084 0.810785 24.096137
496 1 1 31.029307 0.525612 24.196505
497 1 1 31.078066 0.505452 24.572825
498 1 1 31.004157 0.153552 24.695722
499 1 1 30.716257 0.157001 24.943718
500 1 1 30.895068 36.311340 24.906723
501 1 1 30.783918 36.243605 25.263735
502 1 1 30.532570 36.150888 25.533231
503 1 1 30.570993 36.077301 25.904053
504 1 1 30.676883 36.325238 26.171849
505 1 1 30.531169 0.038764 26.459456
506 1 1 30.851795 0.147582 26.631959
507 1 1 30.836778 0.256996 26.995556
508 1 1 30.663697 0.583195 27.085208
509 1 1 30.810206 0.904702 27.225094
510 1 1 30.690500 1.131174 27.505774
511 1 1 30.486646 1.139192 27.826366
512 1 1 30.295608 0.907188 28.058914
513 1 1 29.932198 0.902187 28.169853
514 1 1 29.698398 0.835230 28.461837
515 1 1 29.630885 0.475063 28.562440
516 1 1 29.635650 0.354426 28.922751
517 1 1 29.407822 0.050417 28.931298
518 1 1 29.208902 36.395882 28.640384
519 1 1 29.551735 36.275102 28.751188
520 1 1 29.624572 36.017284 29.020678
521 1 1 29.808453 35.896760 29.330617
522 1 1 29.760702 35.762253 29.682792
523 1 1 29.414817 35.826967 29.826235
524 1 1 29.257544 36.139740 29.678457
525 1 1 28.899364 36.185028 29.797016
526 1 1 28.653323 35.902690 29.732602
527 1 1 28.612896 35.707320 29.409188
528 1 1 28.273537 35.536356 29.406584
529 1 1 28.116881 35.190150 29.405694
530 1 1 27.779010 35.212842 29.233276
531 1 1 27.533770 35.069166 29.485496
532 1 1 27.570083 34.749230 29.687294
533 1 1 27.562017 34.445916 29.916064
534 1 1 27.398340 34.132322 30.054875
535 1 1 27.437712 33.910274 30.360725
536 1 1 27.417804 33.537720 30.288566
537 1 1 27.440225 33.502319 29.910884
538 1 1 27.341771 33.579696 29.552108
539 1 1 27.431585 33.269941 29.351148
540 1 1 27.520739 32.904107 29.299990
541 1 1 27.639991 32.593038 29.482787
542 1 1 27.325260 32.407841 29.587890
543 1 1 27.209054 32.046719 29.609955
544 1 1 27.353012 31.838259 29.326723
545 1 1 27.665274 31.941761 29.136513
546 1 1 27.670800 32.089292 28.786364
547 1 1 27.785421 32.450113 28.753650
548 1 1 27.642338 32.794766 28.681944
549 1 1 27.457677 33.060675 28.482964
550 1 1 27.500742 33.229267 28.145144
551 1 1 27.748734 33.220092 27.857367
552 1 1 27.853267 33.157353 27.497455
553 1 1 28.168792 33.350390 27.410385
554 1 1 28.456669 33.107886 27.358247
555 1 1 28.511327 32.769062 27.195117
556 1 1 28.745592 32.561002 26.980104
557 1 1 28.765207 32.704183 26.628657
558 1 1 29.073748 32.923465 26.595223
559 1 1 29.360752 32.957043 26.842004
560 1 1 29.686530 32.790601 26.739212
561 1 1 29.906878 32.490344 26.814661
562 1 1 30.058345 32.382910 26.483126
563 1 1 29.994645 32.017967 26.398514
564 1 1 30.089900 31.710514 26.196527
565 1 1 30.401968 31.494597 26.216375
566 1 1 30.737926 31.317122 26.222257
567 1 1 30.838133 31.130385 25.906840
568 1 1 31.038370 30.817793 25.825655
569 1 1 31.101315 30.470607 25.966722
570 1 1 31.168336 30.386953 26.331291
571 1 1 31.289303 30.181833 26.627420
572 1 1 31.310527 30.058512 26.986226
573 1 1 31.111110 29.740262 27.044102
574 1 1 30.753975 29.623911 26.986507
575 1 1 30.380276 29.587431 26.928040
576 1 1 30.073406 29.455386 26.746947
577 1 1 30.131271 29.081515 26.711277
578 1 1 29.785288 28.936981 26.649586
579 1 1 29.742520 28.634589 26.875704
580 1 1 29.954220 28.390740 27.076005
581 1 1 30.191889 28.360026 27.370912
582 1 1 30.442568 28.074549 27.378838
583 1 1 30.676734 27.802632 27.503847
584 1 1 30.613332 27.429778 27.540723
585 1 1 30.383135 27.202500 27.740108
586 1 1 30.180184 26.981663 27.973436
587 1 1 30.063039 26.994349 28.334706
588 1 1 29.755050 27.156828 28.486834
589 1 1 29.685659 27.503449 28.347410
590 1 1 29.322026 27.606001 28.306741
591 1 1 29.180350 27.461210 27.985239
592 1 1 28.934287 27.190285 28.087477
593 1 1 28.913763 26.941699 28.374154
594 1 1 28.588567 26.898424 28.565921
595 1 1 28.494938 27.216375 28.751772
596 1 1 28.347372 27.428225 29.030598
597 1 1 27.987401 27.546307 29.060229
598 1 1 27.842118 27.404996 29.381670
599 1 1 27.833181 27.280784 29.740684
600 1 1 27.827139 27.035379 30.030753
601 1 1 28.073753 26.757400 29.951322
602 1 1 28.261780 26.841327 29.631944
603 1 1 28.564039 26.611488 29.617329
604 1 1 28.873820 26.404366 29.691737
605 1 1 28.893575 26.034104 29.608576
606 1 1 28.657924 25.760444 29.490344
607 1 1 28.535227 25.403789 29.444056
608 1 1 28.155941 25.426316 29.449966
609 1 1 27.960599 25.752232 29.445437
610 1 1 27.641557 25.704560 29.646284
611 1 1 27.338758 25.478873 29.688450
612 1 1 27.098945 25.312802 29.444913
613 1 1 27.020856 25.057229 29.174757
614 1 1 26.808098 25.142386 28.871636
615 1 1 26.935869 25.336362 28.570890
616 1 1 27.171431 25.399888 28.279557
617 1 1 27.471265 25.553262 28.103557
618 1 1 27.729973 25.820752 28.180493
619 1 1 27.883283 25.936518 28.508356
620 1 1 28.167468 26.132781 28.666848
621 1 1 28.101317 26.204735 29.034062
622 1 1 27.828034 26.468474 29.046634
623 1 1 27.787755 26.798219 29.231149
624 1 1 27.572024 26.751823 29.540515
625 1 1 27.470899 26.405159 29.658830
626 1 1 27.191921 26.379216 29.915536
627 1 1 26.819748 26.360692 29.841076
628 1 1 26.683610 26.006045 29.850668
629 1 1 26.430945 25.729596 29.786351
630 1 1 26.089259 25.593175 29.691273
631 1 1 25.928441 25.764060 29.392381
632 1 1 26.014899 26.132975 29.363624
633 1 1 26.026235 26.431423 29.598572
634 1 1 25.930686 26.660007 29.886703
635 1 1 26.235971 26.774948 30.081613
636 1 1 26.468328 27.031755 30.238011
637 1 1 26.686006 27.198608 29.974998
638 1 1 27.025227 27.308711 29.843823
639 1 1 27.175575 27.614998 30.011105
640 1 1 27.144645 27.764244 30.359198
641 1 1 27.259739 28.059580 30.568793
642 1 1 27.335393 28.078804 30.940689
643 1 1 27.508476 28.217517 31.249235
644 1 1 27.649218 27.932177 31.457016
645 1 1 27.620926 27.583557 31.308477
646 1 1 27.560272 27.216175 31.384314
647 1 1 27.642866 26.911632 31.596050
648 1 1 27.995343 26.880124 31.734495
649 1 1 28.342617 26.924004 31.882397
650 1 1 28.616967 27.088926 32.087172
651 1 1 28.663594 27.465126 32.060718
652 1 1 28.961634 27.698190 32.025317
653 1 1 29.311330 27.590451 31.922822
654 1 1 29.653347 27.448185 31.838062
655 1 1 30.030197 27.462106 31.884863
656 1 1 30.218360 27.768917 32.006773
657 1 1 30.489187 27.671363 32.254837
658 1 1 30.551752 27.400485 32.513894
659 1 1 30.524588 27.141274 32.790429
660 1 1 30.552655 27.231203 33.158566
661 1 1 30.673907 27.273760 33.516179
662 1 1 30.941033 27.244574 33.784865
663 1 1 31.320200 27.221838 33.795629
664 1 1 31.631192 27.432190 33.854241
665 1 1 31.869653 27.692848 33.714263
666 1 1 32.115987 27.961545 33.606925
667 1 1 31.953253 28.230170 33.393013
668 1 1 31.682758 28.050750 33.195426
669 1 1 31.717280 27.683318 33.104860
670 1 1 31.770890 27.654809 32.729743
671 1 1 31.560823 27.921105 32.558399
672 1 1 31.442931 27.975522 32.201271
673 1 1 31.408011 27.656902 31.997159
674 1 1 31.171594 27.360011 31.978124
675 1 1 31.085418 27.023081 31.824983
676 1 1 31.242308 26.701081 31.951874
677 1 1 31.565293 26.588781 31.786134
678 1 1 31.721632 26.293347 31.966901
679 1 1 31.908010 26.037987 31.756058
680 1 1 32.196655 26.171791 31.548259
681 1 1 32.237507 26.097304 31.177877
682 1 1 32.090865 26.262183 30.868505
683 1 1 31.765294 26.076444 30.806020
684 1 1 31.447364 26.009064 31.002947
685 1 1 31.094084 26.010842 31.142914
686 1 1 30.881509 26.083507 31.449397
687 1 1 30.791087 25.772905 31.648772
688 1 1 30.618377 25.610175 31.945571
689 1 1 30.546980 25.796604 32.268908
690 1 1 30.229209 25.885549 32.457350
691 1 1 30.117991 26.210631 32.619683
692 1 1 30.390275 26.301931 32.868532
693 1 1 30.695875 26.084850 32.806201
694 1 1 31.056772 26.135875 32.913670
695 1 1 31.351697 26.224710 32.691122
696 1 1 31.340925 26.012025 32.376402
697 1 1 31.394189 25.640704 32.315706
698 1 1 31.410254 25.357178 32.568204
699 1 1 31.296932 25.136516 32.856068
700 1 1 31.522125 25.118076 33.161597
701 1 1 31.557343 25.237522 33.520613
702 1 1 31.292453 25.423019 33.720173
703 1 1 31.114723 25.725937 33.575077
704 1 1 31.237537 26.049625 33.731738
705 1 1 31.548487 26.017384 33.947773
706 1 1 31.837043 26.215365 33.799654
707 1 1 32.068768 26.187823 33.499745
708 1 1 32.145552 26.225979 33.129545
709 1 1 32.025281 26.229132 32.769094
710 1 1 32.051567 26.503848 32.507866
711 1 1 32.272120 26.741368 32.309521
712 1 1 32.314304 27.116373 32.264893
713 1 1 32.656293 27.282007 32.261954
714 1 1 32.719338 27.393438 31.904172
715 1 1 32.583318 27.531836 31.577453
716 1 1 32.217322 27.452105 31.513503
717 1 1 31.900109 27.328603 31.682391
718 1 1 31.601713 27.158854 31.519463
719 1 1 31.350978 27.275609 31.258887
720 1 1 31.199273 27.620249 31.207809
721 1 1 31.394656 27.933422 31.298076
722 1 1 31.587387 28.257894 31.253666
723 1 1 31.949125 28.228022 31.366152
724 1 1 32.266086 28.423125 31.289529
725 1 1 32.250132 28.793126 31.204415
726 1 1 32.197915 29.168613 31.178272
727 1 1 32.153286 29.542940 31.130449
728 1 1 32.319610 29.877589 31.061552
729 1 1 32.605921 29.883490 30.811769
730 1 1 32.527377 29.882717 30.439976
731 1 1 32.450758 29.788903 30.079798
732 1 1 32.480547 29.413233 30.030962
733 1 1 32.660348 29.277711 30.337075
734 1 1 32.976518 29.121987 30.479155
735 1 1 33.054910 28.814890 30.269522
736 1 1 33.111534 28.471099 30.421183
737 1 1 33.317094 28.243059 30.197256
738 1 1 33.581181 28.403461 29.976057
739 1 1 33.514447 28.759756 29.862037
740 1 1 33.819392 28.864536 29.660967
741 1 1 34.140281 29.067683 29.648262
742 1 1 34.438763 29.237637 29.810818
743 1 1 34.774275 29.085568 29.717507
744 1 1 35.124187 29.175580 29.835234
745 1 1 35.421344 29.240894 29.607569
746 1 1 35.753834 29.091417 29.714842
747 1 1 36.011057 28.842578 29.842573
748 1 1 36.018669 28.896748 30.218615
749 1 1 35.741562 29.037780 30.437068
750 1 1 35.426771 29.035015 30.649902
751 1 1 35.495022 28.973386 31.018608
752 1 1 35.728466 28.674228 31.038812
753 1 1 35.823397 28.613959 31.401793
754 1 1 36.185860 28.722437 31.437194
755 1 1 36.486354 28.904786 31.581596
756 1 1 0.264440 29.157519 31.481892
757 1 1 0.510163 28.934013 31.297324
758 1 1 0.356933 28.851887 30.959425
759 1 1 0.297220 28.513443 30.797283
760 1 1 0.244628 28.173348 30.958434
761 1 1 0.077678 27.956546 31.222109
762 1 1 36.309675 27.736665 31.046829
763 1 1 36.240492 27.710895 30.674070
764 1 1 36.357378 27.489544 30.388166
765 1 1 36.397302 27.117214 30.323543
766 1 1 0.167708 27.251217 30.568245
767 1 1 0.097252 27.552792 30.348044
768 1 1 0.294789 27.748969 30.089406
769 1 1 0.304943 28.040340 29.845685
770 1 1 0.602258 28.047405 29.609140
771 1 1 0.884066 27.816391 29.716924
772 1 1 1.114116 27.531910 29.819626
773 1 1 1.390260 27.559847 30.079171
774 1 1 1.343503 27.741788 30.409491
775 1 1 1.353359 28.119534 30.369356
776 1 1 1.140586 28.362332 30.168915
777 1 1 0.815841 28.527017 30.060197
778 1 1 0.563544 28.808730 30.022992
779 1 1 0.550643 29.153251 29.863183
780 1 1 0.537807 29.483496 29.675637
781 1 1 0.400885 29.722055 29.413450
782 1 1 0.494982 30.087475 29.368577
783 1 1 0.598324 30.398898 29.560245
784 1 1 0.440005 30.735822 29.636513
785 1 1 0.384749 31.102026 29.551413
786 1 1 0.117835 31.317676 29.388160
787 1 1 36.328464 31.062839 29.335729
788 1 1 36.081091 30.774527 29.326633
789 1 1 36.046446 30.445398 29.139888
790 1 1 35.928001 30.255302 28.832912
791 1 1 35.819547 30.238644 28.469099
792 1 1 35.844877 29.872909 28.369115
793 1 1 35.969303 29.525898 28.276912
794 1 1 36.088861 29.165712 28.257634
795 1 1 35.924824 28.829330 28.323505
796 1 1 35.851717 28.459967 28.374752