LAMMPS data file for polymer system

27000 atoms
26940 bonds

1 atom types
1 bond types

0.0 36.487593149437835 xlo xhi
0.0 36.487593149437835 ylo yhi
0.0 36.487593149437835 zlo zhi

Masses

1 5.65487

Atoms

1 1 1 17.564353 3.412438 1.463435
2 1 1 17.489536 3.784159 1.438416
3 1 1 17.303960 4.033321 1.657231
4 1 1 17.496397 4.173467 1.953419
5 1 1 17.668120 4.183235 2.292264
6 1 1 17.785492 3.844520 2.418344
7 1 1 18.147660 3.732250 2.393244
8 1 1 18.128521 3.352736 2.395061
9 1 1 17.939137 3.215561 2.694589
10 1 1 17.681817 2.953149 2.598015
11 1 1 17.677158 2.827073 2.239570
12 1 1 17.936914 2.560983 2.161323
13 1 1 18.104062 2.490945 1.827323
14 1 1 18.194219 2.811905 1.644960
15 1 1 18.290084 3.175091 1.587461
16 1 1 18.474218 3.502747 1.531462
17 1 1 18.537468 3.772941 1.791067
18 1 1 18.860434 3.826161 1.984096
19 1 1 18.819857 3.641206 2.313558
20 1 1 18.943628 3.351629 2.526222
21 1 1 18.692672 3.314366 2.809122
22 1 1 18.482318 3.501531 3.064310
23 1 1 18.175025 3.573906 3.275811
24 1 1 17.980079 3.343043 3.506242
25 1 1 17.769362 3.033184 3.443109
26 1 1 17.463984 3.141005 3.244316
27 1 1 17.198399 3.110146 2.974293
28 1 1 16.820154 3.110197 3.010775
29 1 1 16.707009 3.190526 3.364535
30 1 1 16.627017 2.852311 3.518197
31 1 1 16.470581 2.545582 3.678961
32 1 1 16.569088 2.499999 4.043130
33 1 1 16.506678 2.243037 4.316032
34 1 1 16.431360 2.177847 4.682743
35 1 1 16.479530 2.359029 5.013278
36 1 1 16.604808 2.713676 4.959142
37 1 1 16.823511 2.800211 5.257606
38 1 1 16.863109 2.839944 5.633443
39 1 1 16.633359 2.687040 5.894662
40 1 1 16.348857 2.923742 5.980863
41 1 1 15.992166 2.801721 6.028643
42 1 1 15.878857 2.681089 5.686577
43 1 1 16.018732 2.745348 5.339150
44 1 1 16.266690 3.033120 5.349342
45 1 1 16.337163 3.252871 5.047443
46 1 1 16.460479 3.506045 4.792303
47 1 1 16.779513 3.462232 4.590566
48 1 1 16.803891 3.392713 4.217776
49 1 1 17.038318 3.130143 4.074594
50 1 1 17.408276 3.046322 4.097066
51 1 1 17.779122 2.982135 4.044597
52 1 1 18.099495 2.797920 3.956131
53 1 1 18.404983 2.774445 4.180910
54 1 1 18.779551 2.835923 4.198779
55 1 1 19.016078 2.787564 4.492235
56 1 1 19.271103 2.928309 4.736269
57 1 1 19.250101 3.287984 4.857069
58 1 1 19.288745 3.445567 5.200689
59 1 1 19.046423 3.553088 5.472938
60 1 1 18.684833 3.642153 5.397308
61 1 1 18.637196 3.935792 5.160861
62 1 1 18.706510 3.947451 4.787418
63 1 1 18.552408 4.061700 4.459394
64 1 1 18.509378 4.044698 4.082221
65 1 1 18.307194 3.736302 3.990496
66 1 1 18.362448 3.462887 4.248549
67 1 1 18.169138 3.378768 4.564706
68 1 1 18.377164 3.163697 4.798948
69 1 1 18.455738 2.965913 5.113762
70 1 1 18.322953 3.016607 5.466179
71 1 1 18.224624 3.272001 5.729819
72 1 1 17.874694 3.386551 5.635866
73 1 1 17.596177 3.598752 5.488220
74 1 1 17.300431 3.558706 5.252996
75 1 1 17.312868 3.574823 4.873542
76 1 1 17.537923 3.564720 4.567522
77 1 1 17.724296 3.816796 4.352760
78 1 1 17.575729 4.019030 4.067402
79 1 1 17.732571 3.972074 3.724480
80 1 1 17.608392 4.255618 3.504066
81 1 1 17.593869 4.113264 3.152037
82 1 1 17.882506 4.191531 2.917595
83 1 1 18.221283 4.362730 2.935501
84 1 1 18.469260 4.095767 2.827619
85 1 1 18.803128 4.157499 2.656971
86 1 1 19.135676 4.275202 2.515699
87 1 1 19.469574 4.274399 2.334283
88 1 1 19.832304 4.345377 2.246030
89 1 1 20.139766 4.248492 2.447229
90 1 1 20.296766 4.177512 2.785921
91 1 1 20.605755 3.962147 2.735485
92 1 1 20.770909 3.857143 2.409757
93 1 1 20.673898 3.996722 2.069895
94 1 1 20.774007 4.363251 2.063968
95 1 1 20.736893 4.559189 2.387435
96 1 1 20.718495 4.933624 2.325305
97 1 1 20.966170 5.220888 2.348467
98 1 1 21.217603 5.293188 2.072869
99 1 1 21.085627 5.447382 1.751612
100 1 1 20.817727 5.235161 1.585503
101 1 1 20.992781 5.007001 1.337112
102 1 1 20.781535 4.776395 1.121251
103 1 1 20.747555 4.577675 0.799140
104 1 1 20.686046 4.447172 0.447592
105 1 1 20.492926 4.164011 0.283506
106 1 1 20.545143 3.829717 0.456482
107 1 1 20.394599 3.660450 0.761581
108 1 1 20.282786 3.496253 1.085522
109 1 1 20.117928 3.156079 1.046752
110 1 1 20.222071 2.814423 1.176466
111 1 1 20.418310 2.854469 1.499400
112 1 1 20.482297 2.564862 1.736958
113 1 1 20.389186 2.660115 2.092847
114 1 1 20.390800 3.002332 2.258030
115 1 1 20.242312 2.968616 2.606189
116 1 1 20.435775 2.767116 2.863812
117 1 1 20.729771 2.531534 2.814136
118 1 1 21.021113 2.424772 3.033503
119 1 1 21.115658 2.057055 3.049185
120 1 1 21.142509 1.870075 3.378908
121 1 1 21.195751 1.515843 3.505735
122 1 1 21.211474 1.140133 3.560456
123 1 1 20.864305 0.990057 3.597207
124 1 1 20.747566 0.729157 3.346801
125 1 1 20.479363 0.785657 3.083600
126 1 1 20.404854 0.648605 2.737096
127 1 1 20.521259 0.470620 2.422181
128 1 1 20.272204 0.227264 2.270033
129 1 1 19.982870 0.176146 2.511016
130 1 1 19.643321 0.011781 2.465288
131 1 1 19.769462 36.369115 2.799236
132 1 1 19.731458 36.108046 2.525743
133 1 1 19.966806 35.817566 2.457678
134 1 1 19.858921 35.529148 2.680335
135 1 1 19.677933 35.217631 2.801168
136 1 1 19.315378 35.157805 2.704344
137 1 1 19.120198 35.414773 2.503664
138 1 1 18.872822 35.687281 2.598237
139 1 1 18.726737 35.834118 2.279649
140 1 1 18.399814 35.806683 2.087897
141 1 1 18.232943 35.465481 2.099538
142 1 1 17.957150 35.473625 1.838249
143 1 1 18.041447 35.680964 1.531159
144 1 1 17.716409 35.850287 1.430758
145 1 1 17.392776 35.725843 1.275273
146 1 1 17.130923 36.000642 1.293116
147 1 1 17.155527 36.353333 1.153819
148 1 1 16.978168 0.196006 1.216014
149 1 1 17.084669 0.292192 0.864154
150 1 1 16.810387 0.429394 0.639777
151 1 1 16.792335 0.494079 0.265758
152 1 1 16.592542 0.809491 0.195065
153 1 1 16.505850 0.610907 36.370490
154 1 1 16.816901 0.415629 36.468027
155 1 1 17.100393 0.479203 36.223097
156 1 1 17.358943 0.463564 0.013545
157 1 1 17.691829 0.284729 36.461078
158 1 1 17.432874 0.007828 36.486910
159 1 1 17.487096 36.356399 0.348793
160 1 1 17.651997 36.332491 0.690313
161 1 1 17.888938 0.140981 0.714672
162 1 1 18.120962 0.440393 0.684388
163 1 1 18.246540 0.660802 0.967319
164 1 1 18.385456 0.813426 1.286393
165 1 1 18.610305 0.620182 1.524090
166 1 1 18.776163 0.878851 1.747655
167 1 1 19.100577 1.071973 1.790780
168 1 1 19.104464 1.422754 1.936853
169 1 1 18.878374 1.653750 1.737041
170 1 1 18.785875 1.996071 1.600440
171 1 1 18.675286 2.359139 1.619204
172 1 1 18.772945 2.538642 1.298827
173 1 1 18.798975 2.352111 0.968784
174 1 1 19.035382 2.057550 1.010567
175 1 1 19.308423 2.065909 1.274724
176 1 1 19.364220 2.355382 1.514498
177 1 1 19.497102 2.711388 1.512932
178 1 1 19.449254 3.042608 1.692943
179 1 1 19.369130 3.368698 1.515052
180 1 1 19.457296 3.316594 1.149113
181 1 1 19.269030 3.421295 0.836073
182 1 1 19.305875 3.554399 0.482059
183 1 1 19.398583 3.884951 0.319145
184 1 1 19.542515 4.153094 0.091587
185 1 1 19.251051 3.943688 36.454289
186 1 1 18.878325 3.902555 36.392783
187 1 1 18.574910 3.913759 36.164279
188 1 1 18.456968 3.896390 35.803463
189 1 1 18.077007 3.891055 35.802382
190 1 1 17.758561 4.068424 35.909773
191 1 1 17.559024 4.386469 35.851190
192 1 1 17.567168 4.759213 35.777733
193 1 1 17.537383 5.038540 35.521824
194 1 1 17.617701 5.094695 35.154679
195 1 1 17.477219 5.281632 34.855147
196 1 1 17.557554 5.305171 34.484483
197 1 1 17.506840 5.199053 34.123142
198 1 1 17.197792 5.368408 33.980987
199 1 1 16.817885 5.364924 33.988643
200 1 1 16.558655 5.323119 33.713958
201 1 1 16.237017 5.256095 33.523020
202 1 1 16.218210 4.924807 33.337833
203 1 1 15.885931 4.905260 33.154505
204 1 1 15.714371 4.646580 32.935298
205 1 1 15.561806 4.332190 32.786024
206 1 1 15.485881 4.032116 32.565590
207 1 1 15.445382 3.657029 32.611085
208 1 1 15.386794 3.504890 32.267834
209 1 1 15.044631 3.449809 32.111979
210 1 1 14.791055 3.632738 31.896025
211 1 1 14.555855 3.852314 32.098182
212 1 1 14.421539 4.188060 31.981419
213 1 1 14.146464 4.261778 31.729825
214 1 1 13.812210 4.341580 31.892014
215 1 1 13.494457 4.549914 31.897544
216 1 1 13.485898 4.849614 32.131011
217 1 1 13.313522 5.025525 32.420392
218 1 1 13.134165 5.182068 32.716577
219 1 1 13.247091 5.544726 32.727841
220 1 1 13.341119 5.622112 33.087799
221 1 1 13.289840 5.912888 33.327006
222 1 1 13.177565 6.247801 33.467104
223 1 1 13.048051 6.546861 33.271683
224 1 1 13.298539 6.775378 33.100114
225 1 1 13.530557 7.041466 33.240703
226 1 1 13.784361 7.186381 32.997838
227 1 1 14.082590 7.217328 32.764383
228 1 1 14.077344 7.226928 32.384541
229 1 1 14.216639 7.551493 32.244346
230 1 1 14.147217 7.895066 32.097588
231 1 1 14.209349 7.947135 31.726336
232 1 1 14.035136 7.936127 31.388803
233 1 1 13.788843 8.069275 31.131875
234 1 1 13.952660 8.066341 30.789011
235 1 1 13.815658 7.885056 30.484436
236 1 1 13.452375 7.807019 30.404838
237 1 1 13.144450 7.595593 30.474701
238 1 1 13.095941 7.227780 30.392477
239 1 1 13.093643 6.847789 30.391383
240 1 1 13.031125 6.517948 30.569418
241 1 1 12.720822 6.300846 30.600706
242 1 1 12.576811 5.988175 30.761633
243 1 1 12.224325 5.847990 30.739235
244 1 1 11.866282 5.803960 30.619793
245 1 1 11.876151 5.703175 30.253535
246 1 1 11.924359 5.935144 29.956437
247 1 1 12.157633 6.162252 29.760466
248 1 1 12.239933 6.287348 29.411213
249 1 1 12.123744 6.604059 29.236300
250 1 1 12.012724 6.810176 28.936983
251 1 1 12.154683 6.812374 28.584502
252 1 1 12.019486 7.094133 28.368322
253 1 1 11.686997 7.165577 28.198774
254 1 1 11.528910 7.225532 27.858459
255 1 1 11.543228 7.209734 27.479058
256 1 1 11.762987 7.488212 27.342837
257 1 1 11.723440 7.807760 27.544641
258 1 1 11.581598 7.893374 27.886622
259 1 1 11.206072 7.848157 27.923170
260 1 1 10.844872 7.934345 28.003831
261 1 1 10.717025 8.083829 28.328961
262 1 1 10.807691 8.015285 28.691564
263 1 1 11.026941 7.716286 28.774809
264 1 1 11.037530 7.401453 28.987337
265 1 1 11.128263 7.521477 29.336280
266 1 1 11.330220 7.528914 29.658085
267 1 1 11.401643 7.791310 29.923503
268 1 1 11.241799 8.071434 30.124451
269 1 1 10.934904 8.168924 29.922680
270 1 1 10.934030 8.278550 29.558837
271 1 1 10.655587 8.224859 29.305881
272 1 1 10.330917 8.334495 29.141657
273 1 1 10.272591 8.607543 28.883892
274 1 1 10.011550 8.855356 28.762046
275 1 1 10.009399 9.192827 28.936713
276 1 1 9.720255 9.434085 28.987608
277 1 1 9.529237 9.742966 29.099433
278 1 1 9.233181 9.930562 29.246261
279 1 1 9.222365 10.216840 29.495918
280 1 1 8.911363 10.278543 29.705371
281 1 1 8.680743 10.120772 29.962903
282 1 1 8.698190 9.901869 30.273027
283 1 1 8.966897 9.764433 30.503912
284 1 1 9.095577 9.669427 30.848608
285 1 1 8.995760 9.701367 31.213870
286 1 1 8.765336 9.791696 31.502219
287 1 1 8.484962 9.973881 31.682771
288 1 1 8.461147 10.331397 31.809321
289 1 1 8.634134 10.652034 31.701305
290 1 1 8.864085 10.834823 31.460244
291 1 1 8.961064 10.632519 31.153539
292 1 1 8.915599 10.288417 30.998854
293 1 1 8.550005 10.200026 30.944748
294 1 1 8.338681 10.295125 30.643586
295 1 1 8.147237 10.198294 30.329941
296 1 1 7.770034 10.172744 30.291672
297 1 1 7.552126 10.027526 30.567040
298 1 1 7.263376 9.868497 30.756073
299 1 1 7.256579 9.502939 30.859617
300 1 1 7.038052 9.371381 31.141288
301 1 1 6.970535 9.001550 31.085916
302 1 1 6.980118 8.637956 30.975882
303 1 1 7.052655 8.345772 31.207760
304 1 1 6.733742 8.160016 31.298256
305 1 1 6.777800 7.789225 31.368778
306 1 1 6.950492 7.491727 31.530248
307 1 1 7.159305 7.202989 31.662261
308 1 1 7.045590 6.847960 31.735901
309 1 1 6.702684 6.862247 31.899031
310 1 1 6.735854 7.034458 32.236141
311 1 1 6.845238 6.930079 32.584767
312 1 1 6.771644 6.558104 32.609640
313 1 1 6.580976 6.363676 32.344605
314 1 1 6.766205 6.042608 32.260906
315 1 1 7.124149 5.976732 32.151655
316 1 1 7.498622 5.990840 32.088636
317 1 1 7.652859 6.293241 31.917859
318 1 1 7.572100 6.369269 31.554407
319 1 1 7.793301 6.361936 31.245512
320 1 1 8.081506 6.292727 31.007713
321 1 1 8.092501 5.978085 30.794923
322 1 1 8.137656 5.654843 30.600307
323 1 1 8.170036 5.452170 30.280502
324 1 1 8.219720 5.701863 29.998393
325 1 1 8.085850 6.050438 30.068921
326 1 1 8.088702 6.403028 29.927246
327 1 1 7.851675 6.696944 29.884445
328 1 1 7.830965 6.959599 29.610614
329 1 1 8.123205 7.196437 29.664500
330 1 1 8.193816 7.552472 29.776986
331 1 1 8.015122 7.887830 29.778742
332 1 1 7.770847 8.088618 29.989488
333 1 1 7.808872 8.451011 30.097309
334 1 1 7.500808 8.565581 30.288019
335 1 1 7.131354 8.614197 30.213586
336 1 1 6.946170 8.932366 30.119376
337 1 1 6.666719 9.039284 29.885122
338 1 1 6.448578 8.731157 29.841852
339 1 1 6.335775 8.539091 29.533979
340 1 1 6.105743 8.370276 29.283008
341 1 1 6.220022 8.362608 28.920680
342 1 1 5.918988 8.317637 28.693179
343 1 1 5.816097 8.235366 28.336746
344 1 1 5.948094 8.245870 27.980562
345 1 1 6.274284 8.050946 27.978476
346 1 1 6.578267 7.851322 27.868270
347 1 1 6.497593 7.485823 27.933859
348 1 1 6.457024 7.116913 27.852253
349 1 1 6.413836 6.739521 27.841757
350 1 1 6.549841 6.388278 27.892066
351 1 1 6.549458 6.103998 27.639906
352 1 1 6.326535 5.888448 27.420263
353 1 1 6.389756 5.841556 27.048504
354 1 1 6.190543 5.653241 26.785347
355 1 1 6.451762 5.473383 26.576025
356 1 1 6.557935 5.188652 26.347868
357 1 1 6.911112 5.100466 26.238829
358 1 1 7.123674 5.062078 26.551469
359 1 1 7.410091 5.263532 26.699053
360 1 1 7.554072 5.611125 26.752426
361 1 1 7.309466 5.857134 26.907499
362 1 1 7.095361 6.066824 26.673856
363 1 1 6.887996 6.062567 26.355452
364 1 1 6.733504 5.796980 26.131854
365 1 1 6.758435 5.659447 25.778494
366 1 1 6.836428 5.381481 25.531407
367 1 1 7.178656 5.222401 25.486981
368 1 1 7.374646 5.317449 25.798355
369 1 1 7.632850 5.120863 25.996053
370 1 1 7.747446 4.783755 26.128816
371 1 1 7.715171 4.413496 26.049655
372 1 1 7.500177 4.100531 26.064843
373 1 1 7.265200 3.864070 25.882438
374 1 1 6.935851 3.683306 25.825395
375 1 1 6.613668 3.486220 25.867287
376 1 1 6.287429 3.438824 25.678284
377 1 1 6.043472 3.149074 25.647786
378 1 1 5.882341 2.804956 25.652149
379 1 1 5.883092 2.512403 25.409636
380 1 1 6.215330 2.327964 25.410265
381 1 1 6.385004 2.403455 25.741795
382 1 1 6.699501 2.612352 25.784852
383 1 1 7.021252 2.432440 25.877091
384 1 1 7.264555 2.225938 25.670788
385 1 1 7.266688 1.866164 25.548486
386 1 1 7.578618 1.715358 25.392417
387 1 1 7.581625 1.678560 25.014215
388 1 1 7.876523 1.541883 24.817353
389 1 1 8.134249 1.292801 24.943589
390 1 1 8.374371 1.146315 24.688084
391 1 1 8.438375 1.264937 24.332792
392 1 1 8.401655 1.126874 23.980669
393 1 1 8.710785 1.204535 23.773770
394 1 1 8.792818 1.071922 23.427238
395 1 1 8.567744 0.871762 23.195554
396 1 1 8.710210 0.820947 22.846954
397 1 1 8.882727 0.781592 22.510667
398 1 1 8.762237 0.787565 22.150325
399 1 1 9.049091 0.732140 21.907338
400 1 1 9.174503 1.071142 21.790082
401 1 1 9.223999 1.197877 21.435274
402 1 1 9.224203 1.576637 21.465946
403 1 1 9.462287 1.870409 21.428338
404 1 1 9.257869 2.183588 21.361016
405 1 1 9.270653 2.557764 21.295987
406 1 1 9.087026 2.770879 21.551454
407 1 1 9.027551 2.690546 21.918073
408 1 1 8.724398 2.895604 22.020293
409 1 1 8.579413 3.207135 22.182552
410 1 1 8.860010 3.463282 22.189884
411 1 1 8.885035 3.834574 22.112973
412 1 1 9.090125 4.012779 21.847302
413 1 1 9.225376 3.837114 21.538677
414 1 1 9.342268 3.475892 21.554635
415 1 1 9.446647 3.307783 21.230221
416 1 1 9.322186 3.094510 20.941389
417 1 1 9.025757 3.179638 20.719392
418 1 1 8.826721 2.950598 20.490644
419 1 1 8.803103 2.581817 20.579205
420 1 1 9.093046 2.374462 20.710874
421 1 1 9.435907 2.211194 20.697084
422 1 1 9.766174 2.399041 20.703186
423 1 1 9.838276 2.683876 20.462208
424 1 1 9.887979 3.005896 20.266677
425 1 1 9.911702 3.376783 20.345926
426 1 1 10.089987 3.418131 20.678950
427 1 1 10.212202 3.485271 21.032440
428 1 1 10.164301 3.804548 21.232858
429 1 1 9.844158 4.003865 21.279569
430 1 1 9.659849 4.097926 20.960849
431 1 1 9.508888 4.070654 20.613190
432 1 1 9.132800 4.124858 20.617639
433 1 1 8.895662 4.177591 20.909846
434 1 1 8.682032 4.489387 20.870533
435 1 1 8.389278 4.481178 20.628402
436 1 1 8.448201 4.413494 20.259150
437 1 1 8.388691 4.373164 19.886012
438 1 1 8.295242 4.701048 19.718204
439 1 1 8.030710 4.704820 19.445426
440 1 1 7.742664 4.462425 19.497141
441 1 1 7.672039 4.355993 19.855029
442 1 1 7.636839 3.977994 19.838365
443 1 1 7.710943 3.606213 19.864583
444 1 1 7.874293 3.284640 19.984197
445 1 1 7.699640 2.947158 19.985814
446 1 1 7.548523 2.876423 19.644405
447 1 1 7.200766 2.906771 19.494258
448 1 1 6.926114 2.663841 19.394503
449 1 1 6.548798 2.696947 19.425112
450 1 1 6.299658 2.819853 19.165838
451 1 1 14.801072 28.833313 7.977162
452 1 1 14.824111 28.544072 8.222537
453 1 1 14.689776 28.628155 8.567913
454 1 1 14.404850 28.522108 8.795884
455 1 1 14.180638 28.270998 8.619608
456 1 1 13.833432 28.147272 8.712020
457 1 1 13.724013 27.983886 9.037185
458 1 1 13.568694 27.700587 9.237230
459 1 1 13.511847 27.325252 9.220161
460 1 1 13.351355 26.981829 9.193638
461 1 1 13.597143 26.696389 9.243759
462 1 1 13.938265 26.858167 9.286927
463 1 1 14.203317 26.769796 9.029365
464 1 1 14.472056 27.037884 9.011818
465 1 1 14.475997 27.264421 9.316885
466 1 1 14.307893 27.374423 9.639438
467 1 1 14.081684 27.328359 9.941279
468 1 1 14.211149 27.176822 10.264814
469 1 1 13.912659 27.081257 10.479688
470 1 1 13.791692 26.737078 10.373352
471 1 1 13.644257 26.571760 10.682112
472 1 1 13.585966 26.521939 11.054295
473 1 1 13.317961 26.746896 11.202510
474 1 1 13.107067 26.941634 11.451510
475 1 1 12.741497 26.859043 11.514258
476 1 1 12.507395 27.151428 11.450168
477 1 1 12.140221 27.132377 11.546192
478 1 1 12.093821 27.140740 11.923255
479 1 1 12.322104 27.299168 12.182461
480 1 1 12.697165 27.275094 12.238583
481 1 1 12.855320 26.931300 12.273110
482 1 1 13.032727 26.685639 12.502408
483 1 1 13.248369 26.779084 12.801016
484 1 1 13.103777 27.087059 12.970262
485 1 1 12.869669 27.350559 13.112253
486 1 1 12.577915 27.365198 12.869219
487 1 1 12.208879 27.421857 12.798495
488 1 1 11.892247 27.630465 12.823537
489 1 1 11.905252 28.010176 12.816427
490 1 1 12.225806 28.187271 12.715022
491 1 1 12.530433 28.367032 12.576140
492 1 1 12.759595 28.370760 12.273037
493 1 1 12.860558 28.619647 12.004222
494 1 1 12.919939 28.600600 11.629374
495 1 1 13.154226 28.304992 11.583268
496 1 1 13.438725 28.075491 11.479397
497 1 1 13.579776 27.732122 11.560653
498 1 1 13.453189 27.554116 11.871603
499 1 1 13.214548 27.730905 12.108660
500 1 1 13.402304 27.975168 12.331109
501 1 1 13.638493 27.959785 12.628394
502 1 1 14.010987 27.965207 12.703353
503 1 1 14.198633 28.281679 12.608303
504 1 1 14.473613 28.422875 12.829322
505 1 1 14.729368 28.699627 12.878289
506 1 1 14.884186 28.839579 13.195849
507 1 1 15.258872 28.879593 13.244938
508 1 1 15.608750 29.011895 13.311883
509 1 1 15.888210 28.849454 13.511671
510 1 1 15.909927 28.470414 13.495647
511 1 1 16.051822 28.368821 13.833204
512 1 1 16.425812 28.320081 13.786768
513 1 1 16.741507 28.109694 13.808531
514 1 1 17.047821 27.885173 13.795782
515 1 1 17.406867 27.911064 13.917501
516 1 1 17.750212 28.073895 13.916839
517 1 1 18.019668 28.159491 14.170743
518 1 1 18.368673 28.143751 14.021251
519 1 1 18.514119 27.806829 13.922614
520 1 1 18.832517 27.631743 14.033824
521 1 1 18.993441 27.287508 14.036177
522 1 1 19.256351 27.219676 14.302028
523 1 1 19.443155 27.135060 14.621941
524 1 1 19.727690 27.099256 14.871256
525 1 1 19.793257 26.784368 15.073608
526 1 1 20.079557 26.534511 15.075513
527 1 1 20.219265 26.359252 14.768648
528 1 1 20.571571 26.218416 14.747546
529 1 1 20.800069 26.457226 14.560040
530 1 1 21.149084 26.601726 14.518711
531 1 1 21.425885 26.470637 14.293773
532 1 1 21.598650 26.557652 13.966694
533 1 1 21.752599 26.358387 13.682102
534 1 1 21.817017 26.138370 13.379046
535 1 1 22.099881 25.895782 13.304623
536 1 1 21.991381 25.554201 13.430916
537 1 1 21.726078 25.404840 13.658304
538 1 1 21.404988 25.465545 13.852252
539 1 1 21.195878 25.221309 14.054790
540 1 1 21.067629 25.083748 14.384986
541 1 1 20.809763 25.324383 14.526407
542 1 1 20.656689 25.593110 14.305603
543 1 1 20.446083 25.826818 14.092471
544 1 1 20.660107 26.076107 13.901555
545 1 1 20.548249 26.432241 13.972661
546 1 1 20.579236 26.805717 14.035555
547 1 1 20.302202 27.033647 13.910255
548 1 1 20.266235 27.408718 13.860978
549 1 1 19.976346 27.520946 14.079540
550 1 1 19.637358 27.681761 14.019322
551 1 1 19.634995 28.061481 14.033704
552 1 1 19.447758 28.152802 14.351513
553 1 1 19.153101 28.294836 14.544912
554 1 1 19.181054 28.671754 14.584305
555 1 1 19.453920 28.834160 14.375575
556 1 1 19.775060 28.766811 14.567233
557 1 1 19.785013 28.674202 14.935641
558 1 1 19.831150 28.432541 15.225247
559 1 1 19.507238 28.384191 15.417973
560 1 1 19.148200 28.328953 15.306435
561 1 1 18.980656 27.987972 15.314240
562 1 1 18.938825 27.855649 15.667993
563 1 1 19.150891 27.546765 15.731391
564 1 1 19.271579 27.325424 15.447063
565 1 1 19.173728 27.458092 15.104682
566 1 1 18.819096 27.344132 15.029518
567 1 1 18.510233 27.137234 15.108236
568 1 1 18.451516 27.082182 15.479614
569 1 1 18.099994 27.073585 15.623692
570 1 1 18.046162 26.749186 15.814133
571 1 1 18.384689 26.586832 15.872787
572 1 1 18.595461 26.291790 15.759097
573 1 1 18.558908 26.001941 15.516091
574 1 1 18.337991 25.697934 15.572442
575 1 1 18.307207 25.322169 15.524979
576 1 1 18.191255 25.034867 15.745008
577 1 1 17.842897 25.074746 15.891490
578 1 1 17.767014 25.441079 15.958133
579 1 1 17.457064 25.592202 16.117797
580 1 1 17.077893 25.568879 16.127049
581 1 1 16.834059 25.412517 15.881090
582 1 1 16.890830 25.054177 15.768087
583 1 1 16.697126 24.850189 15.512611
584 1 1 16.525395 24.592265 15.292649
585 1 1 16.422075 24.569892 14.927649
586 1 1 16.437205 24.493426 14.555730
587 1 1 16.615457 24.261731 14.312946
588 1 1 16.705190 23.919490 14.451579
589 1 1 16.692281 23.642304 14.711196
590 1 1 16.724608 23.298656 14.870133
591 1 1 16.664586 23.163041 15.219998
592 1 1 16.882006 23.287266 15.505824
593 1 1 17.250863 23.334715 15.583881
594 1 1 17.461986 23.365792 15.898303
595 1 1 17.601279 23.645026 16.115157
596 1 1 17.444580 23.862320 16.384655
597 1 1 17.271330 23.682841 16.671311
598 1 1 16.998362 23.427434 16.739544
599 1 1 16.683325 23.616333 16.836850
600 1 1 16.668883 23.862704 17.125800
601 1 1 16.545941 24.162899 17.323710
602 1 1 16.709378 24.341174 17.616808
603 1 1 16.713271 24.547615 17.935817
604 1 1 16.462761 24.828694 17.987191
605 1 1 16.119166 24.935985 18.108975
606 1 1 15.798806 25.131324 18.048877
607 1 1 15.419404 25.139920 18.068385
608 1 1 15.165450 25.143742 17.785732
609 1 1 14.898884 24.929794 17.619694
610 1 1 14.978517 24.582093 17.488690
611 1 1 14.741739 24.287169 17.525517
612 1 1 14.757838 24.188113 17.892026
613 1 1 14.399051 24.167507 18.015506
614 1 1 14.266199 24.125863 18.369083
615 1 1 14.303315 24.373439 18.654964
616 1 1 14.486787 24.706081 18.664319
617 1 1 14.508199 24.876872 19.003100
618 1 1 14.270176 24.841811 19.297235
619 1 1 14.034808 25.132456 19.364520
620 1 1 13.976588 25.478282 19.510858
621 1 1 14.091026 25.789155 19.324682
622 1 1 14.443694 25.911178 19.253019
623 1 1 14.661976 25.600141 19.256033
624 1 1 14.803086 25.544065 18.907689
625 1 1 15.029335 25.817172 18.771220
626 1 1 15.190495 25.858983 18.429636
627 1 1 14.954184 25.878285 18.132677
628 1 1 14.670238 25.626868 18.156430
629 1 1 14.346902 25.826486 18.159018
630 1 1 14.331877 25.995540 18.499011
631 1 1 14.122716 26.221394 18.721814
632 1 1 13.778710 26.223574 18.560398
633 1 1 13.451937 26.045655 18.637627
634 1 1 13.219888 25.758134 18.726425
635 1 1 12.860512 25.821492 18.832418
636 1 1 12.524380 25.994977 18.796101
637 1 1 12.169730 26.073993 18.907366
638 1 1 11.817588 25.940470 18.856694
639 1 1 11.540507 25.884171 18.602812
640 1 1 11.231186 26.078268 18.707916
641 1 1 10.882344 25.994445 18.833148
642 1 1 10.530027 26.135695 18.815235
643 1 1 10.356282 26.405298 18.611453
644 1 1 10.084796 26.464946 18.352343
645 1 1 10.040095 26.812177 18.204585
646 1 1 9.886927 27.132586 18.069392
647 1 1 9.759563 27.401636 17.833191
648 1 1 9.644343 27.762471 17.802819
649 1 1 9.390586 28.000410 17.649874
650 1 1 9.082392 27.891188 17.456258
651 1 1 8.748334 27.746517 17.565236
652 1 1 8.574127 27.509700 17.806004
653 1 1 8.344984 27.394676 18.086473
654 1 1 8.000824 27.320213 18.229335
655 1 1 7.626731 27.351982 18.170640
656 1 1 7.409367 27.041952 18.202802
657 1 1 7.171995 26.911917 18.469532
658 1 1 6.864069 26.880695 18.690002
659 1 1 6.656814 26.571888 18.612005
660 1 1 6.379461 26.324564 18.691415
661 1 1 6.070000 26.425225 18.495198
662 1 1 6.036685 26.733884 18.276064
663 1 1 5.741560 26.698949 18.039251
664 1 1 5.626937 26.440447 17.785404
665 1 1 5.637530 26.064234 17.732950
666 1 1 5.564078 25.766479 17.508569
667 1 1 5.274602 25.527762 17.448418
668 1 1 5.012485 25.301822 17.605406
669 1 1 4.784221 25.199913 17.891606
670 1 1 4.832857 25.333242 18.244108
671 1 1 4.764710 25.681546 18.379902
672 1 1 4.665965 25.886934 18.075821
673 1 1 4.414286 26.165209 18.015647
674 1 1 4.526705 26.514969 18.112757
675 1 1 4.708314 26.727049 17.854997
676 1 1 4.543668 27.069451 17.847740
677 1 1 4.224484 27.128146 18.045417
678 1 1 4.267777 26.989938 18.396735
679 1 1 3.936927 26.915321 18.568112
680 1 1 3.808624 26.595432 18.408083
681 1 1 3.717779 26.256096 18.552991
682 1 1 3.387330 26.086498 18.472742
683 1 1 3.257321 26.223490 18.142998
684 1 1 3.020025 26.051405 17.901178
685 1 1 2.669886 25.992058 17.765972
686 1 1 2.410402 26.212935 17.934144
687 1 1 2.290974 26.560129 18.032088
688 1 1 2.090440 26.746564 18.295580
689 1 1 1.854757 26.964085 18.499389
690 1 1 1.493915 27.062517 18.566506
691 1 1 1.114706 27.054897 18.543217
692 1 1 0.757747 26.924781 18.536163
693 1 1 0.382296 26.967328 18.576492
694 1 1 0.050318 27.151543 18.560503
695 1 1 36.408493 27.381822 18.287332
696 1 1 0.214254 27.519411 18.088805
697 1 1 0.326745 27.881406 18.115367
698 1 1 0.604828 28.031600 18.326344
699 1 1 0.795616 28.314722 18.159486
700 1 1 1.162713 28.268278 18.245990
701 1 1 1.246296 27.912878 18.351370
702 1 1 1.595754 27.820578 18.234070
703 1 1 1.821067 27.648135 17.981290
704 1 1 1.660545 27.311619 17.907876
705 1 1 1.326639 27.148491 17.987221
706 1 1 0.983409 27.248543 17.858446
707 1 1 0.986935 27.613604 17.753002
708 1 1 0.853142 27.611989 17.397339
709 1 1 0.641274 27.317707 17.283717
710 1 1 0.314395 27.205046 17.441379
711 1 1 0.215958 26.945214 17.700604
712 1 1 0.080621 26.653360 17.498354
713 1 1 36.281871 26.457095 17.652910
714 1 1 36.384375 26.135502 17.478350
715 1 1 0.001009 25.777118 17.406954
716 1 1 0.268406 25.743513 17.139056
717 1 1 0.264962 25.400574 16.975406
718 1 1 0.475387 25.138755 17.153092
719 1 1 0.839571 25.045651 17.097394
720 1 1 1.154192 25.154251 17.280750
721 1 1 1.058513 25.432714 17.520967
722 1 1 0.910634 25.765323 17.630066
723 1 1 0.745644 26.099203 17.705582
724 1 1 0.477715 26.055141 17.971426
725 1 1 0.244861 26.200023 18.234462
726 1 1 0.064372 26.426743 18.480271
727 1 1 36.250776 26.651592 18.536199
728 1 1 36.476970 26.546310 18.249577
729 1 1 36.477400 26.166578 18.263850
730 1 1 36.337175 26.023197 18.586617
731 1 1 36.225179 25.874943 18.918095
732 1 1 36.248817 26.136526 19.192714
733 1 1 36.196776 26.247389 19.552438
734 1 1 0.067902 26.297551 19.437528
735 1 1 0.260828 26.593115 19.296739
736 1 1 0.543543 26.794850 19.450931
737 1 1 0.840706 26.740632 19.220379
738 1 1 1.078820 27.035231 19.250604
739 1 1 1.148697 27.079297 19.621516
740 1 1 1.450756 26.896332 19.761814
741 1 1 1.747604 26.847449 19.529668
742 1 1 1.947464 26.539180 19.432582
743 1 1 2.184278 26.307120 19.618236
744 1 1 2.468908 26.245926 19.374020
745 1 1 2.829822 26.344602 19.307659
746 1 1 3.041741 26.256855 19.610629
747 1 1 3.177017 26.030065 19.883881
748 1 1 3.513336 25.864509 19.821587
749 1 1 3.678768 25.806001 20.158647
750 1 1 3.885131 25.488030 20.185265
751 1 1 4.203183 25.404762 20.375816
752 1 1 4.180145 25.431902 20.754145
753 1 1 3.908351 25.597605 20.961680
754 1 1 3.580930 25.517317 21.137035
755 1 1 3.302174 25.747940 21.253260
756 1 1 2.972107 25.565490 21.299815
757 1 1 2.620083 25.532687 21.439111
758 1 1 2.590922 25.257804 21.699858
759 1 1 2.670950 25.071122 22.021020
760 1 1 2.468064 25.186395 22.320936
761 1 1 2.148402 25.376525 22.398828
762 1 1 1.856219 25.224633 22.588453
763 1 1 1.546398 25.443743 22.608496
764 1 1 1.295490 25.579497 22.859526
765 1 1 1.339144 25.604168 23.236203
766 1 1 1.372423 25.421469 23.567736
767 1 1 1.569724 25.237655 23.835475
768 1 1 1.566860 25.434200 24.160686
769 1 1 1.552334 25.175628 24.438768
770 1 1 1.575537 24.915450 24.714756
771 1 1 1.749406 24.585232 24.786350
772 1 1 1.845600 24.285522 24.999236
773 1 1 2.225446 24.280009 25.008541
774 1 1 2.509951 24.500144 24.886074
775 1 1 2.428748 24.854026 24.998206
776 1 1 2.727349 24.971863 25.201559
777 1 1 2.794958 24.728480 25.485450
778 1 1 2.906200 24.748606 25.848245
779 1 1 2.919580 25.110332 25.963896
780 1 1 3.074398 25.274545 26.269617
781 1 1 3.056752 25.234213 26.647058
782 1 1 3.109069 25.232713 27.023437
783 1 1 3.183424 25.442437 27.331474
784 1 1 2.876629 25.616550 27.472758
785 1 1 2.894943 25.779862 27.815387
786 1 1 2.977015 25.903187 28.165322
787 1 1 2.784465 25.870484 28.491290
788 1 1 2.688172 25.845126 28.858012
789 1 1 2.370789 25.851470 29.066885
790 1 1 2.165372 25.531804 29.071048
791 1 1 2.101060 25.175472 29.186336
792 1 1 2.095864 24.889375 28.936293
793 1 1 2.254691 24.644535 28.692926
794 1 1 2.129129 24.312257 28.557925
795 1 1 1.831255 24.079123 28.594253
796 1 1 1.741370 23.712077 28.634225
797 1 1 1.450708 23.467991 28.615850
798 1 1 1.095908 23.339702 28.570476
799 1 1 0.858449 23.202048 28.307675
800 1 1 0.725569 23.427987 28.032549
801 1 1 0.872791 23.523330 27.695450
802 1 1 0.899976 23.773422 27.410643
803 1 1 0.984091 24.074927 27.195192
804 1 1 1.263630 24.328455 27.239706
805 1 1 1.599692 24.345964 27.416215
806 1 1 1.823840 24.042369 27.460797
807 1 1 1.839048 23.815731 27.765434
808 1 1 1.759838 23.542318 28.017171
809 1 1 1.434479 23.367057 27.928709
810 1 1 1.360366 23.000697 27.860241
811 1 1 1.050105 22.782055 27.878491