LAMMPS data file for polymer system

27000 atoms
26940 bonds

1 atom types
1 bond types

0.0 32.72015539562262 xlo xhi
0.0 32.72015539562262 ylo yhi
0.0 32.72015539562262 zlo zhi

Masses

1 5.65487

Atoms

1 1 1 22.921219 23.747997 9.636989
2 1 1 23.292068 23.764562 9.718208
3 1 1 23.636208 23.624430 9.638643
4 1 1 23.590369 23.410943 9.327641
5 1 1 23.534244 23.601418 9.003651
6 1 1 23.597092 23.643490 8.631253
7 1 1 23.818038 23.734324 8.335734
8 1 1 24.062600 23.999145 8.215486
9 1 1 24.343840 24.027089 7.961473
10 1 1 24.718771 23.965941 7.952105
11 1 1 25.092862 23.981711 8.016973
12 1 1 25.347401 23.726567 7.896509
13 1 1 25.681952 23.619271 8.041295
14 1 1 26.024937 23.706060 8.179964
15 1 1 26.088894 24.065917 8.075983
16 1 1 26.405248 24.206687 7.919445
17 1 1 26.565294 24.523226 7.783107
18 1 1 26.429984 24.816452 7.582833
19 1 1 26.455730 25.190802 7.522844
20 1 1 26.319718 25.524011 7.644798
21 1 1 25.958124 25.616538 7.573466
22 1 1 25.780729 25.702229 7.898409
23 1 1 25.612792 26.042955 7.908556
24 1 1 25.303840 26.206412 8.057654
25 1 1 25.119112 25.932524 8.245432
26 1 1 24.867307 25.664129 8.340080
27 1 1 24.860262 25.284208 8.343328
28 1 1 24.947327 25.186851 8.700177
29 1 1 24.769263 24.935307 8.922480
30 1 1 24.615712 24.833274 9.254762
31 1 1 24.370893 24.656362 9.485340
32 1 1 24.122268 24.808566 9.729101
33 1 1 24.261737 25.126608 9.883368
34 1 1 24.274629 25.225186 10.250132
35 1 1 24.479396 25.035166 10.507742
36 1 1 24.487088 24.661529 10.576562
37 1 1 24.387121 24.317354 10.702858
38 1 1 24.058880 24.184745 10.840961
39 1 1 23.727150 24.192597 11.026145
40 1 1 23.425081 24.286123 11.236875
41 1 1 23.443715 24.422836 11.590941
42 1 1 23.514986 24.795597 11.610167
43 1 1 23.644488 25.100603 11.796180
44 1 1 23.962697 25.094961 12.003812
45 1 1 24.209678 25.347023 11.862868
46 1 1 24.511424 25.444795 12.072128
47 1 1 24.794388 25.618010 11.886852
48 1 1 24.806796 25.685434 11.513087
49 1 1 24.540245 25.898819 11.346303
50 1 1 24.567524 26.125446 11.042500
51 1 1 24.241678 26.272572 10.913743
52 1 1 24.189005 26.398985 10.559278
53 1 1 24.188503 26.665726 10.288632
54 1 1 24.144924 26.888567 9.983932
55 1 1 24.241853 27.246588 9.901312
56 1 1 24.551480 27.358731 10.090929
57 1 1 24.877425 27.353238 9.895661
58 1 1 25.234799 27.226148 9.918732
59 1 1 25.307691 27.069797 10.257319
60 1 1 25.563893 27.242475 10.478549
61 1 1 25.765818 27.454557 10.720721
62 1 1 25.721672 27.400204 11.094214
63 1 1 25.714386 27.276151 11.453321
64 1 1 25.739350 27.401890 11.811045
65 1 1 25.533021 27.435264 12.128401
66 1 1 25.514776 27.129707 12.353572
67 1 1 25.557291 26.904554 12.656719
68 1 1 25.680874 26.910658 13.016010
69 1 1 25.560917 26.726633 13.326083
70 1 1 25.539251 26.360362 13.424957
71 1 1 25.233427 26.200629 13.584195
72 1 1 24.979062 26.233386 13.864598
73 1 1 24.840858 25.927589 14.042889
74 1 1 24.891827 25.564956 13.941401
75 1 1 24.739492 25.216854 13.945709
76 1 1 24.585286 24.880131 14.030788
77 1 1 24.405941 24.901502 14.365121
78 1 1 24.567146 25.057394 14.671896
79 1 1 24.847493 25.086148 14.926805
80 1 1 24.809948 25.423205 15.098221
81 1 1 25.070605 25.636184 15.274568
82 1 1 25.438350 25.569372 15.343123
83 1 1 25.607222 25.598898 15.682255
84 1 1 25.422497 25.810118 15.938503
85 1 1 25.345811 26.084309 16.190174
86 1 1 25.176476 26.193357 16.512407
87 1 1 25.018079 26.372115 16.807967
88 1 1 24.676614 26.538780 16.812953
89 1 1 24.375297 26.433444 17.019137
90 1 1 24.487334 26.232637 17.321667
91 1 1 24.826035 26.217812 17.493312
92 1 1 25.087206 26.490420 17.536609
93 1 1 25.454276 26.574319 17.587799
94 1 1 25.805135 26.428446 17.583488
95 1 1 25.866408 26.214727 17.275317
96 1 1 26.190705 26.025141 17.332664
97 1 1 26.473842 26.277923 17.350968
98 1 1 26.785247 26.174349 17.159396
99 1 1 26.923447 26.283565 16.822688
100 1 1 26.679138 26.451305 16.584830
101 1 1 26.463674 26.480178 16.273154
102 1 1 26.693689 26.453511 15.971853
103 1 1 27.043792 26.472015 15.825273
104 1 1 27.243171 26.671086 16.080261
105 1 1 27.551252 26.856062 15.956689
106 1 1 27.722644 27.033883 15.667891
107 1 1 27.982809 27.049370 15.391351
108 1 1 28.167590 27.097549 15.062817
109 1 1 27.960590 27.115797 14.744669
110 1 1 27.611735 26.967189 14.719852
111 1 1 27.340569 26.789873 14.918416
112 1 1 26.998495 26.894754 14.790410
113 1 1 26.782242 27.111821 15.015169
114 1 1 26.597031 27.388623 15.198138
115 1 1 26.395753 27.694587 15.096778
116 1 1 26.025947 27.619676 15.141853
117 1 1 25.819512 27.407056 14.903994
118 1 1 25.533671 27.181972 15.013685
119 1 1 25.397167 26.827462 15.023117
120 1 1 25.230711 26.487754 14.987187
121 1 1 24.986363 26.259448 14.806714
122 1 1 24.761226 26.320126 14.506662
123 1 1 24.393108 26.414028 14.515123
124 1 1 24.058539 26.436503 14.693893
125 1 1 24.114720 26.399819 15.067922
126 1 1 24.238911 26.675468 15.298127
127 1 1 24.111001 27.030172 15.250969
128 1 1 24.039950 27.387619 15.143341
129 1 1 24.030801 27.732823 14.984752
130 1 1 23.989553 27.999355 15.252443
131 1 1 23.939917 28.106862 15.613523
132 1 1 23.844987 28.473856 15.640050
133 1 1 23.803583 28.538389 16.012234
134 1 1 23.998512 28.528990 16.338293
135 1 1 23.733726 28.486801 16.607567
136 1 1 23.548808 28.810099 16.682957
137 1 1 23.679961 29.091613 16.463985
138 1 1 23.658200 29.470470 16.444128
139 1 1 23.430394 29.695184 16.239170
140 1 1 23.586033 29.844091 15.926115
141 1 1 23.819965 30.069401 15.728856
142 1 1 24.176180 30.146956 15.836078
143 1 1 24.482309 30.153570 16.061114
144 1 1 24.843429 30.241711 15.982222
145 1 1 25.028506 30.570831 16.024958
146 1 1 25.079084 30.947297 16.014234
147 1 1 25.067546 31.067160 15.653818
148 1 1 25.202974 30.843006 15.378475
149 1 1 25.489964 30.946869 15.152093
150 1 1 25.408364 31.210007 14.890369
151 1 1 25.227621 31.523610 15.006063
152 1 1 25.260459 31.776608 15.287691
153 1 1 25.560217 31.689331 15.504319
154 1 1 25.743106 31.615450 15.829116
155 1 1 25.616108 31.380660 16.099569
156 1 1 25.757795 31.030869 16.143970
157 1 1 25.646433 30.723769 16.338102
158 1 1 25.835722 30.696791 16.666495
159 1 1 25.659988 30.534808 16.961926
160 1 1 25.388034 30.315499 16.812446
161 1 1 25.183476 30.071813 16.604664
162 1 1 24.915282 29.888350 16.801675
163 1 1 24.721776 29.565634 16.854689
164 1 1 24.891882 29.232626 16.787090
165 1 1 25.187079 29.137298 16.567610
166 1 1 25.141303 28.972856 16.228105
167 1 1 25.396570 28.692059 16.208310
168 1 1 25.653154 28.429892 16.109151
169 1 1 25.947749 28.191450 16.136718
170 1 1 26.051476 27.885946 16.337487
171 1 1 26.341026 27.791400 16.564692
172 1 1 26.237315 27.916389 16.908235
173 1 1 26.234374 28.255310 17.080059
174 1 1 26.218011 28.634191 17.055949
175 1 1 25.993300 28.895877 16.896494
176 1 1 25.970787 29.257406 17.011344
177 1 1 25.902684 29.422057 17.346980
178 1 1 25.629254 29.337982 17.597115
179 1 1 25.299385 29.194807 17.474284
180 1 1 25.245279 28.847927 17.619703
181 1 1 25.177122 28.858057 17.993403
182 1 1 25.089637 29.215431 18.088431
183 1 1 24.904749 29.514291 18.232997
184 1 1 24.529624 29.506206 18.293128
185 1 1 24.368857 29.245775 18.067895
186 1 1 24.097214 29.042614 18.239170
187 1 1 24.075263 29.017625 18.617712
188 1 1 24.108788 29.286493 18.884144
189 1 1 24.207786 29.361267 19.243321
190 1 1 24.212616 29.611804 19.528992
191 1 1 24.228952 29.987464 19.474101
192 1 1 24.060782 30.229317 19.234048
193 1 1 24.207725 30.570386 19.314544
194 1 1 24.396581 30.883714 19.211785
195 1 1 24.701670 31.106426 19.253257
196 1 1 24.833790 31.378270 19.022941
197 1 1 24.909075 31.693603 19.221176
198 1 1 25.129555 31.809203 19.508274
199 1 1 25.404282 31.552492 19.563274
200 1 1 25.725064 31.459547 19.382001
201 1 1 25.890816 31.123946 19.316443
202 1 1 26.168940 30.992371 19.093430
203 1 1 26.404685 30.704347 19.016836
204 1 1 26.590943 30.417283 18.851602
205 1 1 26.743290 30.508289 18.515584
206 1 1 26.709228 30.562628 18.141035
207 1 1 26.747676 30.227121 17.966802
208 1 1 26.457257 30.204987 17.722738
209 1 1 26.388582 29.833381 17.682826
210 1 1 26.613869 29.671510 17.423127
211 1 1 26.956339 29.546072 17.529802
212 1 1 27.318631 29.507838 17.637888
213 1 1 27.693194 29.543255 17.584517
214 1 1 27.909449 29.735267 17.831023
215 1 1 28.201813 29.682430 18.067944
216 1 1 28.392820 29.354309 18.083858
217 1 1 28.649193 29.354656 17.803372
218 1 1 28.824537 29.035651 17.694329
219 1 1 28.972021 28.939015 17.357713
220 1 1 29.267815 29.080129 17.165377
221 1 1 29.402186 29.231520 16.843780
222 1 1 29.505709 29.595598 16.877401
223 1 1 29.832351 29.735128 16.742359
224 1 1 30.046834 29.771506 16.430793
225 1 1 30.324667 29.655578 16.198911
226 1 1 30.670258 29.593008 16.053817
227 1 1 30.954390 29.396709 16.212358
228 1 1 31.045778 29.086300 16.013122
229 1 1 31.075205 29.117281 15.635532
230 1 1 30.928444 28.901014 15.359689
231 1 1 30.611100 28.729510 15.479184
232 1 1 30.534330 28.620003 15.834873
233 1 1 30.601184 28.388516 16.128717
234 1 1 30.284217 28.205327 16.230568
235 1 1 30.337011 27.831757 16.275935
236 1 1 30.571291 27.535846 16.231782
237 1 1 30.882576 27.479604 16.442349
238 1 1 31.047411 27.220497 16.666163
239 1 1 31.103844 27.335966 17.023770
240 1 1 31.022722 27.544892 17.330639
241 1 1 30.815350 27.855017 17.402885
242 1 1 30.712174 27.901227 17.765679
243 1 1 31.005066 28.004379 17.984708
244 1 1 31.012395 28.082285 18.356564
245 1 1 30.767743 27.865192 18.549998
246 1 1 30.630641 27.616402 18.297597
247 1 1 30.650436 27.272969 18.136161
248 1 1 30.559118 26.904462 18.119927
249 1 1 30.280438 26.775086 17.896323
250 1 1 30.358710 26.417118 17.795660
251 1 1 30.121345 26.185237 17.610487
252 1 1 29.991512 26.013373 17.297427
253 1 1 29.983888 25.928382 16.927132
254 1 1 29.879310 25.654924 16.684885
255 1 1 29.738136 25.818135 16.372104
256 1 1 29.839407 25.692069 16.028227
257 1 1 30.018260 25.356833 16.022880
258 1 1 29.872466 25.121805 15.762292
259 1 1 30.093239 24.813956 15.732491
260 1 1 30.382561 24.609762 15.594660
261 1 1 30.634348 24.517644 15.863951
262 1 1 30.549546 24.306980 16.168630
263 1 1 30.653640 23.952415 16.257220
264 1 1 30.938326 23.815633 16.468513
265 1 1 31.021377 23.482619 16.631621
266 1 1 30.818491 23.191874 16.494858
267 1 1 30.523437 23.233945 16.259119
268 1 1 30.658731 23.258774 15.904889
269 1 1 30.696720 23.070820 15.576819
270 1 1 30.943959 22.827268 15.422045
271 1 1 31.076630 22.953691 15.089155
272 1 1 30.962017 23.298609 14.978269
273 1 1 31.038910 23.395549 14.618978
274 1 1 30.752771 23.528487 14.407195
275 1 1 30.441121 23.311811 14.425236
276 1 1 30.102669 23.478414 14.470990
277 1 1 30.070443 23.677567 14.793014
278 1 1 29.778850 23.889441 14.913360
279 1 1 29.508159 24.143827 14.993449
280 1 1 29.203110 24.126451 14.767522
281 1 1 29.025072 23.816774 14.637896
282 1 1 28.683546 23.788705 14.473665
283 1 1 28.346655 23.958510 14.428160
284 1 1 28.331564 24.222027 14.701529
285 1 1 28.068610 24.492787 14.745617
286 1 1 27.851130 24.757752 14.581617
287 1 1 27.572280 24.836351 14.335720
288 1 1 27.333481 25.128590 14.380118
289 1 1 27.190609 25.416595 14.582703
290 1 1 26.984113 25.565701 14.864708
291 1 1 26.699643 25.809539 14.928112
292 1 1 26.485492 25.847576 15.239708
293 1 1 26.724803 25.956211 15.514169
294 1 1 26.978941 25.691414 15.612639
295 1 1 27.056367 25.594653 15.971864
296 1 1 26.918901 25.264090 16.099266
297 1 1 26.838526 25.027194 15.813225
298 1 1 26.786728 24.721411 15.593648
299 1 1 26.953311 24.380596 15.571399
300 1 1 27.279765 24.236192 15.701688
301 1 1 27.517044 23.942951 15.655761
302 1 1 27.709487 23.689025 15.862852
303 1 1 27.740102 23.764344 16.234053
304 1 1 28.011163 24.020902 16.305493
305 1 1 28.183354 24.281013 16.522500
306 1 1 28.295938 24.305080 16.884640
307 1 1 28.184167 23.989931 17.065163
308 1 1 28.254194 23.628988 17.161164
309 1 1 27.955502 23.514924 17.366522
310 1 1 27.692452 23.293150 17.205212
311 1 1 27.359508 23.457730 17.285595
312 1 1 27.097370 23.221296 17.426246
313 1 1 26.857731 23.118209 17.149938
314 1 1 26.669251 23.316966 16.886554
315 1 1 26.565076 23.267178 16.524520
316 1 1 26.212578 23.129679 16.489313
317 1 1 26.131569 22.801638 16.315454
318 1 1 26.311481 22.636059 16.024567
319 1 1 26.315722 22.451009 15.692695
320 1 1 26.619844 22.309331 15.514266
321 1 1 26.973746 22.211416 15.612073
322 1 1 27.125629 22.073483 15.292220
323 1 1 27.504046 22.042766 15.276194
324 1 1 27.690028 22.345760 15.142010
325 1 1 27.610800 22.590613 14.862421
326 1 1 27.386888 22.692565 14.572818
327 1 1 27.199468 23.018431 14.628361
328 1 1 27.030253 23.354863 14.679153
329 1 1 26.825739 23.616932 14.863254
330 1 1 26.765272 23.618984 15.238407
331 1 1 26.790408 23.310826 15.459329
332 1 1 26.624384 23.413093 15.785485
333 1 1 26.622630 23.782490 15.874608
334 1 1 26.384391 24.077719 15.896561
335 1 1 26.196407 24.386862 15.780405
336 1 1 26.270071 24.442433 15.411779
337 1 1 26.442773 24.208547 15.167092
338 1 1 26.580818 24.317227 14.830147
339 1 1 26.948430 24.366174 14.747286
340 1 1 27.125049 24.258918 14.428378
341 1 1 27.079449 24.382286 14.071866
342 1 1 26.727630 24.525170 14.057460
343 1 1 26.506139 24.785354 14.223732
344 1 1 26.190443 24.753461 14.432822
345 1 1 25.917035 24.541329 14.275823
346 1 1 25.982797 24.259696 14.029332
347 1 1 26.162197 24.165619 13.707828
348 1 1 26.228527 24.057129 13.349735
349 1 1 26.239209 23.793470 13.076294
350 1 1 26.177360 23.443867 13.211764
351 1 1 25.882753 23.313966 13.009941
352 1 1 25.811531 23.276734 12.638537
353 1 1 25.760137 22.944846 12.460748
354 1 1 25.981095 22.637433 12.427965
355 1 1 26.168692 22.317277 12.346066
356 1 1 26.467535 22.365776 12.116413
357 1 1 26.784146 22.545800 12.224805
358 1 1 27.046944 22.413527 12.465306
359 1 1 27.331838 22.338312 12.705261
360 1 1 27.666424 22.334286 12.525160
361 1 1 27.695801 21.983213 12.382735
362 1 1 27.624796 21.685879 12.608458
363 1 1 27.304422 21.484507 12.643233
364 1 1 27.157840 21.284227 12.355480
365 1 1 27.286484 20.969565 12.185661
366 1 1 27.171912 20.764827 11.886736
367 1 1 27.260542 20.721202 11.519801
368 1 1 27.021320 20.574569 11.263536
369 1 1 26.780383 20.288457 11.330536
370 1 1 26.746610 19.999994 11.085489
371 1 1 26.665438 19.965322 10.715882
372 1 1 26.784593 19.647604 10.544834
373 1 1 26.912426 19.322620 10.395022
374 1 1 27.251220 19.215109 10.529409
375 1 1 27.368056 19.295690 10.881909
376 1 1 27.243400 19.397286 11.226204
377 1 1 27.427121 19.486843 11.546557
378 1 1 27.774976 19.636248 11.513770
379 1 1 27.729656 19.977752 11.353390
380 1 1 27.783200 20.300697 11.546365
381 1 1 27.931743 20.650367 11.538249
382 1 1 28.175916 20.764373 11.270328
383 1 1 28.029044 20.877222 10.938524
384 1 1 27.987122 20.973765 10.573391
385 1 1 27.770721 21.147614 10.313878
386 1 1 27.600718 20.885475 10.097587
387 1 1 27.574388 20.696137 9.769169
388 1 1 27.885442 20.553502 9.603939
389 1 1 28.176102 20.389341 9.785510
390 1 1 28.366087 20.279411 10.095705
391 1 1 28.652929 20.030496 10.082925
392 1 1 28.895822 19.780229 10.233820
393 1 1 28.778130 19.689714 10.583613
394 1 1 28.492460 19.902931 10.715260
395 1 1 28.335915 19.959674 11.056836
396 1 1 28.580773 19.813456 11.307963
397 1 1 28.774671 19.815039 11.634768
398 1 1 28.810721 19.729019 12.003144
399 1 1 28.940582 19.999660 12.236145
400 1 1 29.251148 20.158467 12.386906
401 1 1 29.582066 20.182083 12.572205
402 1 1 29.648889 20.304344 12.925740
403 1 1 29.992960 20.394568 13.059437
404 1 1 30.047903 20.678993 13.305371
405 1 1 29.873725 20.907706 13.553870
406 1 1 29.884307 21.287274 13.539152
407 1 1 29.922768 21.434993 13.887146
408 1 1 29.730141 21.439231 14.214677
409 1 1 29.733277 21.408532 14.593422
410 1 1 29.833665 21.614953 14.896263
411 1 1 29.950890 21.452685 15.219261
412 1 1 30.165271 21.595428 15.498662
413 1 1 30.507276 21.495821 15.630991
414 1 1 30.554036 21.248262 15.915469
415 1 1 30.828651 21.179056 16.168841
416 1 1 31.061455 20.928025 16.003961
417 1 1 31.414715 21.053339 15.941479
418 1 1 31.761288 20.905404 15.892466
419 1 1 31.886904 20.820882 16.241001
420 1 1 31.982961 20.986184 16.569403
421 1 1 32.219706 21.042000 16.861356
422 1 1 32.268325 20.913928 17.215804
423 1 1 31.959993 20.994879 17.422634
424 1 1 31.680718 21.136644 17.637827
425 1 1 31.387366 21.269258 17.839714
426 1 1 31.056795 21.441422 17.913756
427 1 1 30.831153 21.746294 17.890540
428 1 1 30.806537 22.095394 17.742475
429 1 1 31.044962 22.169703 17.456063
430 1 1 30.941425 22.217760 17.093612
431 1 1 30.585301 22.095507 17.042332
432 1 1 30.227515 22.118738 17.168229
433 1 1 29.934363 21.910355 17.045598
434 1 1 29.810187 21.553803 17.088619
435 1 1 29.456300 21.493475 17.213217
436 1 1 29.389872 21.418223 17.579720
437 1 1 29.286721 21.532615 17.927102
438 1 1 29.313131 21.636951 18.291542
439 1 1 29.560122 21.892362 18.426303
440 1 1 29.919805 21.896196 18.548835
441 1 1 30.125722 22.052996 18.827064
442 1 1 30.441127 21.856870 18.907400
443 1 1 30.549594 21.707610 18.575201
444 1 1 30.341191 21.431680 18.417622
445 1 1 30.070317 21.199728 18.548870
446 1 1 29.738477 21.193076 18.363835
447 1 1 29.516307 20.898719 18.272215
448 1 1 29.293270 20.592925 18.306044
449 1 1 29.518602 20.287157 18.294595
450 1 1 29.562449 20.062270 17.991440
451 1 1 15.095261 10.601979 27.004738
452 1 1 14.806414 10.465164 26.799192
453 1 1 14.843121 10.464619 26.420969
454 1 1 14.742171 10.387752 26.062778
455 1 1 14.858151 10.037948 25.970120
456 1 1 15.032711 10.045942 25.632681
457 1 1 15.192868 10.260966 25.363396
458 1 1 15.236982 10.459461 25.042376
459 1 1 15.509529 10.722935 25.015928
460 1 1 15.713887 11.042590 24.994522
461 1 1 15.881548 11.156357 24.673045
462 1 1 15.958368 11.526728 24.709427
463 1 1 16.238153 11.752541 24.586427
464 1 1 16.610342 11.684504 24.551119
465 1 1 16.857828 11.846896 24.789404
466 1 1 17.021110 11.564946 24.984963
467 1 1 17.332847 11.706537 25.149801
468 1 1 17.277824 11.922407 25.457652
469 1 1 17.585233 11.973203 25.675183
470 1 1 17.704412 12.209132 25.948192
471 1 1 17.924327 12.309207 26.241488
472 1 1 17.841065 12.354989 26.609416
473 1 1 18.107345 12.449648 26.863452
474 1 1 18.419065 12.232328 26.861688
475 1 1 18.763781 12.214380 26.702790
476 1 1 19.027512 11.940879 26.696210
477 1 1 19.309440 11.988593 26.445931
478 1 1 19.663216 12.127254 26.449893
479 1 1 19.760345 12.440204 26.642322
480 1 1 20.051979 12.643016 26.507353
481 1 1 20.001433 12.787834 26.159685
482 1 1 20.051544 12.675340 25.800194
483 1 1 20.119332 12.301469 25.795224
484 1 1 20.107702 12.010959 26.039905
485 1 1 20.253824 11.663568 25.991247
486 1 1 20.606626 11.563014 25.892151
487 1 1 20.724888 11.682015 25.551192
488 1 1 20.512503 11.519877 25.281000
489 1 1 20.387605 11.314590 24.986624
490 1 1 20.007898 11.304106 24.997230
491 1 1 19.757233 11.348579 24.715115
492 1 1 19.460077 11.395173 24.482892
493 1 1 19.188656 11.135760 24.541503
494 1 1 19.300567 10.772613 24.541697
495 1 1 19.432343 10.417844 24.575963
496 1 1 19.374639 10.043094 24.550812
497 1 1 18.997853 10.002164 24.578332
498 1 1 18.822444 10.144846 24.883739
499 1 1 18.544625 10.040195 25.120940
500 1 1 18.198830 9.899601 25.192070
501 1 1 18.056687 9.776064 25.522121
502 1 1 17.892533 9.694601 25.855013
503 1 1 17.557434 9.757043 26.022972
504 1 1 17.334446 9.790238 26.328871
505 1 1 17.098280 9.527382 26.468629
506 1 1 17.224582 9.169879 26.493919
507 1 1 17.038103 8.971594 26.759077
508 1 1 16.983078 8.607404 26.852552
509 1 1 16.811875 8.276626 26.777216
510 1 1 16.756555 7.982499 27.011372
511 1 1 16.479627 7.730399 27.075839
512 1 1 16.170169 7.510752 27.095614
513 1 1 15.871592 7.745622 27.105001
514 1 1 15.537365 7.842877 27.257426
515 1 1 15.260380 7.677038 27.056985
516 1 1 14.885561 7.738888 27.066250
517 1 1 14.637216 7.740305 27.353865
518 1 1 14.360439 7.483676 27.397867
519 1 1 14.060108 7.499390 27.165587
520 1 1 13.853873 7.818149 27.149485
521 1 1 13.555391 7.742431 26.926830
522 1 1 13.247689 7.523889 26.971087
523 1 1 13.065771 7.360317 27.261862
524 1 1 12.892225 7.130612 27.509890
525 1 1 12.777288 6.812138 27.682411
526 1 1 12.612201 6.509604 27.522352
527 1 1 12.424579 6.192260 27.614498
528 1 1 12.079670 6.205282 27.773457
529 1 1 11.728795 6.109989 27.662974
530 1 1 11.349191 6.126860 27.658993
531 1 1 11.102930 6.398462 27.758933
532 1 1 10.878404 6.467358 27.460200
533 1 1 10.510196 6.482584 27.367511
534 1 1 10.257078 6.763069 27.408243
535 1 1 9.960586 6.851476 27.628872
536 1 1 9.960893 6.719652 27.985274
537 1 1 9.852074 6.512320 28.284559
538 1 1 9.597526 6.239834 28.357748
539 1 1 9.313813 6.088465 28.560219
540 1 1 9.144527 6.074677 28.900149
541 1 1 8.804224 5.986438 29.044398
542 1 1 8.780432 5.811892 29.381099
543 1 1 8.827655 5.554407 29.656547
544 1 1 8.521688 5.453346 29.857968
545 1 1 8.250950 5.700281 29.958585
546 1 1 7.958343 5.928991 29.878131
547 1 1 7.717278 5.870692 29.590226
548 1 1 7.366993 5.817984 29.727785
549 1 1 7.057404 5.929250 29.537590
550 1 1 7.027817 6.304908 29.586641
551 1 1 6.877763 6.527511 29.317697
552 1 1 6.675626 6.834979 29.412587
553 1 1 6.455464 7.100818 29.253657
554 1 1 6.574300 7.299363 28.952230
555 1 1 6.761067 7.581703 28.779598
556 1 1 6.918425 7.815119 29.034854
557 1 1 6.986191 7.862115 29.405797
558 1 1 7.317628 7.737440 29.543658
559 1 1 7.601530 7.518930 29.670358
560 1 1 7.595312 7.138982 29.671380
561 1 1 7.381451 6.924610 29.441797
562 1 1 7.450179 6.883998 29.070277
563 1 1 7.180115 6.814232 28.812211
564 1 1 7.003132 6.489239 28.725859
565 1 1 7.230014 6.186340 28.691555
566 1 1 7.471529 6.181556 28.398217
567 1 1 7.315138 6.058759 28.074391
568 1 1 7.162237 6.193153 27.753518
569 1 1 6.794848 6.268989 27.814134
570 1 1 6.688364 6.613149 27.935025
571 1 1 6.418943 6.857478 27.824954
572 1 1 6.270835 7.173851 27.675380
573 1 1 6.113306 7.474336 27.504226
574 1 1 6.111025 7.583400 27.140221
575 1 1 5.956049 7.888224 26.974497
576 1 1 5.716899 8.179041 27.025810
577 1 1 5.488238 8.471737 26.945542
578 1 1 5.458799 8.819210 27.096525
579 1 1 5.401880 9.194734 27.084606
580 1 1 5.447545 9.396907 26.766109
581 1 1 5.724297 9.297166 26.525568
582 1 1 6.000419 9.537262 26.423045
583 1 1 6.355926 9.662067 26.472425
584 1 1 6.660239 9.749703 26.682457
585 1 1 6.941627 9.499733 26.630152
586 1 1 7.299118 9.627205 26.648879
587 1 1 7.642590 9.520929 26.525867
588 1 1 7.860175 9.487760 26.216098
589 1 1 8.184333 9.662423 26.309981
590 1 1 8.434095 9.672977 26.596176
591 1 1 8.292088 9.559098 26.929741
592 1 1 8.395182 9.271548 27.155765
593 1 1 8.378182 9.137958 27.511102
594 1 1 8.062477 9.288444 27.659712
595 1 1 7.785200 9.378662 27.416037
596 1 1 7.453445 9.407127 27.599145
597 1 1 7.164681 9.235169 27.421815
598 1 1 6.909435 9.122630 27.163775
599 1 1 6.752724 8.782313 27.100323
600 1 1 6.745540 8.414434 27.195262
601 1 1 7.090703 8.327244 27.328154
602 1 1 7.418431 8.254103 27.150263
603 1 1 7.609443 7.989679 27.345183
604 1 1 7.884120 7.808423 27.535181
605 1 1 8.258617 7.842099 27.480245
606 1 1 8.535151 7.615550 27.351388
607 1 1 8.611672 7.245899 27.395008
608 1 1 8.422662 6.966101 27.569330
609 1 1 8.082164 6.802163 27.609149
610 1 1 7.706170 6.759234 27.643573
611 1 1 7.492686 7.023608 27.473483
612 1 1 7.265734 7.226923 27.246424
613 1 1 6.927618 7.234284 27.073153
614 1 1 6.747874 7.278391 26.741269
615 1 1 6.834656 7.247499 26.372603
616 1 1 7.084206 7.517573 26.276763
617 1 1 7.071210 7.758748 25.983394
618 1 1 7.009787 7.701260 25.612824
619 1 1 7.154095 7.985769 25.406353
620 1 1 7.341133 8.156489 25.123031
621 1 1 7.276978 8.177799 24.749092
622 1 1 7.197765 8.184903 24.377508
623 1 1 7.268416 8.440524 24.105356
624 1 1 6.996954 8.528588 23.854452
625 1 1 6.829186 8.479669 23.517019
626 1 1 6.735889 8.391259 23.159417
627 1 1 6.704022 8.724763 22.980086
628 1 1 6.461005 8.821772 22.704529
629 1 1 6.474715 8.996416 22.367317
630 1 1 6.340021 9.238818 22.107512
631 1 1 6.311624 9.066408 21.770067
632 1 1 6.433478 9.052611 21.410399
633 1 1 6.478591 8.705556 21.262353
634 1 1 6.364624 8.458814 21.527929
635 1 1 6.616801 8.445568 21.811885
636 1 1 6.960748 8.467376 21.651806
637 1 1 7.164633 8.169610 21.532784
638 1 1 7.242860 7.925612 21.813401
639 1 1 7.172061 8.107195 22.139614
640 1 1 6.874944 7.972120 22.334233
641 1 1 6.770587 7.628846 22.209042
642 1 1 6.811367 7.401913 22.511099
643 1 1 6.975664 7.174979 22.767824
644 1 1 6.912996 6.800978 22.743412
645 1 1 6.764478 6.452931 22.778143
646 1 1 6.560111 6.169157 22.926825
647 1 1 6.499880 5.997202 23.260297
648 1 1 6.774265 5.884019 23.497578
649 1 1 6.809716 5.669666 23.809340
650 1 1 7.023379 5.561070 24.104222
651 1 1 6.992102 5.198469 24.213502
652 1 1 7.187001 4.969631 24.445982
653 1 1 7.281164 4.638251 24.606358
654 1 1 7.612953 4.570100 24.778613
655 1 1 7.782144 4.619817 25.115217
656 1 1 7.873737 4.742638 25.462961
657 1 1 8.175874 4.681891 25.685274
658 1 1 8.341688 4.660125 26.026495
659 1 1 8.710128 4.653840 26.119301
660 1 1 8.829863 5.002731 26.210619
661 1 1 8.839362 5.360874 26.083958
662 1 1 8.871624 5.636740 26.343298
663 1 1 8.751239 5.717232 26.694622
664 1 1 8.974430 5.652064 26.995186
665 1 1 9.046985 5.341644 27.202008
666 1 1 8.869622 5.162301 27.486223
667 1 1 8.562265 4.966399 27.378732
668 1 1 8.492285 5.074787 27.021303
669 1 1 8.120281 5.103472 26.949263
670 1 1 7.818147 4.875614 26.983842
671 1 1 7.623157 4.646354 26.751853
672 1 1 7.748289 4.734423 26.404023
673 1 1 7.527669 4.570162 26.141830
674 1 1 7.352256 4.242901 26.061018
675 1 1 7.105903 4.077570 26.298455
676 1 1 6.726535 4.055810 26.295919
677 1 1 6.537330 4.333326 26.473644
678 1 1 6.645107 4.464711 26.813530
679 1 1 6.701736 4.205684 27.085739
680 1 1 6.611834 3.968357 27.368571
681 1 1 6.315054 4.043250 27.593766
682 1 1 5.980693 4.107710 27.425102
683 1 1 5.786022 4.413027 27.309844
684 1 1 5.756137 4.523818 26.947584
685 1 1 5.893897 4.784648 26.708022
686 1 1 5.957560 4.631052 26.366328
687 1 1 5.709504 4.557874 26.087915
688 1 1 5.376824 4.740731 26.070974
689 1 1 5.299720 5.061331 25.882107
690 1 1 4.948964 5.206350 25.863679
691 1 1 4.721089 5.071750 26.136362
692 1 1 4.379052 5.236635 26.151326
693 1 1 4.212605 5.578240 26.152568
694 1 1 4.046407 5.907507 26.061128
695 1 1 3.742794 6.093103 26.194442
696 1 1 3.436641 6.193173 26.396077
697 1 1 3.237039 6.499949 26.293862
698 1 1 2.876477 6.572563 26.389375
699 1 1 2.743312 6.928395 26.382285
700 1 1 2.827817 7.242677 26.578463
701 1 1 2.946693 7.603117 26.597212
702 1 1 3.120007 7.773370 26.889404
703 1 1 3.295967 8.084821 26.761199
704 1 1 3.673407 8.126770 26.774591
705 1 1 3.885510 8.292203 26.506180
706 1 1 4.252898 8.290912 26.409098
707 1 1 4.615949 8.387797 26.465729
708 1 1 4.981135 8.492807 26.469149
709 1 1 5.061492 8.846257 26.355061
710 1 1 5.024664 9.218592 26.288651
711 1 1 4.854451 9.302496 25.959428
712 1 1 5.014595 9.254856 25.618130
713 1 1 5.250506 8.991404 25.479064
714 1 1 5.109292 8.897530 25.138996
715 1 1 5.000274 8.648442 24.873533
716 1 1 4.923563 8.280203 24.819542
717 1 1 4.773968 8.201205 24.479276
718 1 1 4.417868 8.253107 24.357216
719 1 1 4.163955 8.520707 24.266010
720 1 1 4.058029 8.819468 24.056436
721 1 1 3.903246 8.822897 23.709405
722 1 1 3.744119 9.133236 23.558512
723 1 1 3.683534 9.499785 23.638332
724 1 1 3.499889 9.766860 23.439976
725 1 1 3.328484 10.075833 23.579818
726 1 1 3.283997 10.441649 23.487083
727 1 1 3.096353 10.698361 23.279024
728 1 1 2.759960 10.743450 23.108123
729 1 1 2.541998 11.024746 23.241410
730 1 1 2.227745 11.088808 23.037593
731 1 1 2.191127 10.832411 22.759529
732 1 1 2.356989 10.600640 22.508189
733 1 1 2.310620 10.232818 22.591594
734 1 1 2.494969 9.905311 22.535428
735 1 1 2.686910 9.734432 22.815355
736 1 1 2.764596 9.830262 23.174773
737 1 1 2.820961 9.674086 23.516580
738 1 1 2.598354 9.658151 23.824138
739 1 1 2.456180 9.531971 24.153175
740 1 1 2.315311 9.387976 24.475388
741 1 1 1.952616 9.291336 24.416117
742 1 1 1.753349 8.976951 24.339601
743 1 1 1.811097 8.631456 24.192300
744 1 1 1.843722 8.324448 23.970756
745 1 1 2.016748 7.986142 23.967417
746 1 1 2.114939 7.883095 24.319752
747 1 1 1.824081 7.684170 24.461988
748 1 1 1.770317 7.712965 24.837062
749 1 1 1.502689 7.958688 24.948397
750 1 1 1.149529 8.089978 24.898989
751 1 1 1.092017 8.395498 24.680473
752 1 1 1.252819 8.723824 24.784133
753 1 1 1.381050 9.074353 24.855447
754 1 1 1.138811 9.362836 24.805472
755 1 1 0.830925 9.309888 25.021811
756 1 1 0.830516 9.372309 25.396649
757 1 1 0.832076 9.315549 25.772383
758 1 1 0.795466 9.655645 25.937895
759 1 1 0.718825 10.011674 25.829409
760 1 1 0.862328 10.319684 25.659301
761 1 1 0.693025 10.658001 25.695056
762 1 1 0.829696 10.930351 25.922095
763 1 1 0.852042 11.282259 25.780455
764 1 1 0.896250 11.492869 25.467264
765 1 1 0.662044 11.461526 25.169664
766 1 1 0.581289 11.250945 24.863831
767 1 1 0.304269 11.010537 24.764513
768 1 1 32.663307 10.892460 24.771726
769 1 1 32.513665 10.870691 25.120343
770 1 1 32.457982 10.995791 25.474814
771 1 1 32.718895 11.149578 25.704321
772 1 1 0.262657 11.225615 25.966935
773 1 1 0.031070 11.435900 25.751185
774 1 1 32.690921 11.808723 25.793216
775 1 1 32.679690 11.966964 26.138518
776 1 1 0.222389 11.753725 26.311250
777 1 1 0.246404 11.473427 26.566703
778 1 1 32.650239 11.660363 26.663636
779 1 1 32.627990 11.821304 27.007152
780 1 1 32.570822 11.671596 27.351708
781 1 1 0.115709 11.740403 27.088235
782 1 1 0.090207 12.040126 27.320432
783 1 1 0.390328 12.176249 27.509636
784 1 1 0.469361 12.165594 27.881173
785 1 1 0.449532 11.920091 28.170544
786 1 1 0.484938 11.652265 28.437781
787 1 1 0.628131 11.329219 28.298006
788 1 1 0.675015 11.114698 27.987872
789 1 1 0.992800 10.934996 27.882422
790 1 1 1.267372 10.674021 27.852388
791 1 1 1.372863 10.508682 27.526912
792 1 1 1.539384 10.765568 27.301789
793 1 1 1.762471 11.061210 27.386810
794 1 1 1.936030 11.229967 27.679722
795 1 1 2.035966 11.494981 27.933062
796 1 1 2.402685 11.545137 28.019091
797 1 1 2.774925 11.487502 27.968930
798 1 1 2.986152 11.259571 27.750228
799 1 1 2.778887 11.104468 27.472048
800 1 1 3.030457 10.926160 27.249971
801 1 1 3.396683 10.871770 27.335530