LAMMPS data file for polymer system

27000 atoms
26940 bonds

1 atom types
1 bond types

0.0 32.72015539562262 xlo xhi
0.0 32.72015539562262 ylo yhi
0.0 32.72015539562262 zlo zhi

Masses

1 5.65487

Atoms

1 1 1 27.717270 0.081980 21.003065
2 1 1 27.909013 0.408047 20.966800
3 1 1 28.158283 0.680562 20.877357
4 1 1 28.464283 0.709621 20.653930
5 1 1 28.597505 0.889262 20.346715
6 1 1 28.842360 1.179358 20.329684
7 1 1 28.896500 1.383849 20.645361
8 1 1 28.857075 1.232955 20.991882
9 1 1 28.713975 1.503330 21.217314
10 1 1 28.727201 1.872067 21.308189
11 1 1 28.878648 2.143662 21.089787
12 1 1 28.688938 2.469265 21.040872
13 1 1 28.411513 2.385792 20.794970
14 1 1 28.224151 2.068428 20.887574
15 1 1 27.928079 1.976284 20.667912
16 1 1 27.617454 1.952720 20.450296
17 1 1 27.259371 1.830283 20.484730
18 1 1 26.943505 1.858163 20.694138
19 1 1 26.708335 1.700093 20.947334
20 1 1 26.374325 1.879663 20.971657
21 1 1 26.287213 2.242009 21.045935
22 1 1 26.012091 2.492519 21.123087
23 1 1 25.843033 2.690607 20.846355
24 1 1 25.764435 2.892247 20.534003
25 1 1 25.910357 3.086669 20.241929
26 1 1 26.023041 3.425012 20.110682
27 1 1 25.878168 3.706254 20.321193
28 1 1 25.799294 4.072979 20.260436
29 1 1 25.677972 4.423958 20.179845
30 1 1 25.793680 4.707909 19.955382
31 1 1 26.173552 4.699477 19.960508
32 1 1 26.287569 4.702536 19.598029
33 1 1 26.115497 4.495036 19.330196
34 1 1 25.755133 4.530163 19.214853
35 1 1 25.377180 4.507767 19.247252
36 1 1 25.099266 4.378263 19.471736
37 1 1 25.022958 4.508102 19.820618
38 1 1 24.674166 4.497394 19.971049
39 1 1 24.346834 4.676771 19.899791
40 1 1 24.265982 4.811400 19.553759
41 1 1 24.150005 5.073138 19.303873
42 1 1 23.818590 5.223544 19.194594
43 1 1 23.504851 5.027256 19.280840
44 1 1 23.568766 4.652747 19.273257
45 1 1 23.601686 4.531349 19.631836
46 1 1 23.774838 4.382423 19.935546
47 1 1 23.649585 4.502688 20.273552
48 1 1 23.783313 4.274505 20.546407
49 1 1 24.158327 4.335828 20.544392
50 1 1 24.474671 4.463976 20.711436
51 1 1 24.535241 4.690567 21.010415
52 1 1 24.284555 4.903194 21.201061
53 1 1 23.978337 5.113955 21.279867
54 1 1 23.754717 5.228314 21.565026
55 1 1 23.491097 5.471572 21.439606
56 1 1 23.381696 5.785567 21.623558
57 1 1 23.671961 6.030297 21.639478
58 1 1 23.894013 6.204893 21.385294
59 1 1 24.263558 6.118153 21.402978
60 1 1 24.638477 6.172506 21.432668
61 1 1 24.927703 6.396827 21.534788
62 1 1 25.224181 6.623065 21.607706
63 1 1 25.545067 6.808996 21.690539
64 1 1 25.795110 6.762451 21.408207
65 1 1 25.992080 6.579247 21.139805
66 1 1 26.348966 6.455088 21.099601
67 1 1 26.391811 6.095829 20.983422
68 1 1 26.148510 5.863065 20.807283
69 1 1 26.113905 5.693839 20.468808
70 1 1 26.459949 5.588197 20.352648
71 1 1 26.658661 5.728508 20.060712
72 1 1 26.734566 5.466650 19.796007
73 1 1 26.849996 5.111508 19.866363
74 1 1 27.133677 5.126999 20.118722
75 1 1 27.422539 5.114540 20.365305
76 1 1 27.378813 5.332885 20.673223
77 1 1 27.229010 5.679578 20.631232
78 1 1 27.033948 5.992183 20.538341
79 1 1 26.845046 6.276601 20.371540
80 1 1 26.742978 6.572560 20.586924
81 1 1 26.750854 6.935890 20.697963
82 1 1 27.075645 7.112514 20.785795
83 1 1 27.041211 7.220526 21.148490
84 1 1 27.053621 7.485692 21.420397
85 1 1 26.909085 7.835400 21.385554
86 1 1 27.034093 8.078339 21.121445
87 1 1 27.004624 8.344393 20.851729
88 1 1 26.855216 8.319565 20.503217
89 1 1 26.562900 8.144724 20.334748
90 1 1 26.222268 8.223739 20.185998
91 1 1 26.215626 8.569405 20.028292
92 1 1 25.883412 8.586053 19.844562
93 1 1 25.915422 8.598539 19.466118
94 1 1 25.868925 8.449297 19.119758
95 1 1 25.545745 8.265480 19.041235
96 1 1 25.257566 8.274023 18.793687
97 1 1 24.990221 8.011246 18.731441
98 1 1 24.979866 7.652869 18.605511
99 1 1 24.827652 7.526942 18.280898
100 1 1 25.029842 7.252038 18.113724
101 1 1 25.036190 6.934758 17.904695
102 1 1 25.100847 6.967196 17.531643
103 1 1 25.154259 6.792833 17.198259
104 1 1 25.482506 6.770903 17.008067
105 1 1 25.844768 6.759566 16.893884
106 1 1 26.126867 6.505833 16.872917
107 1 1 26.460755 6.664749 16.960465
108 1 1 26.578103 6.935533 17.199850
109 1 1 26.562382 7.309054 17.131766
110 1 1 26.347658 7.572504 17.301730
111 1 1 26.019037 7.434964 17.433983
112 1 1 25.672215 7.428493 17.278830
113 1 1 25.387276 7.441593 17.027756
114 1 1 25.045433 7.481680 17.188805
115 1 1 24.695509 7.394024 17.308259
116 1 1 24.402065 7.156727 17.352765
117 1 1 24.447258 6.976164 17.684058
118 1 1 24.345382 7.195969 17.976816
119 1 1 24.017193 7.366869 17.890302
120 1 1 23.971609 7.634718 18.155970
121 1 1 23.847010 7.536030 18.501130
122 1 1 23.672825 7.214982 18.605952
123 1 1 23.354180 7.008138 18.596942
124 1 1 23.097875 7.110759 18.858048
125 1 1 22.985127 7.394777 19.083929
126 1 1 23.198092 7.702576 19.018309
127 1 1 23.208512 7.747302 18.641094
128 1 1 23.029195 8.063486 18.530310
129 1 1 22.662624 8.156078 18.568419
130 1 1 22.464692 8.478995 18.599196
131 1 1 22.579720 8.803196 18.437757
132 1 1 22.949333 8.883891 18.402054
133 1 1 23.323765 8.930042 18.447556
134 1 1 23.601475 9.139432 18.294476
135 1 1 23.922876 9.080201 18.488366
136 1 1 24.064795 8.747303 18.604287
137 1 1 24.086771 8.378683 18.693934
138 1 1 24.393319 8.352638 18.916981
139 1 1 24.633258 8.646098 18.943645
140 1 1 24.730244 8.757246 18.593446
141 1 1 24.705072 9.085710 18.404031
142 1 1 24.831628 9.298953 18.116088
143 1 1 25.096749 9.267222 17.845710
144 1 1 25.263421 9.325361 17.509198
145 1 1 25.385051 9.029845 17.303586
146 1 1 25.160556 8.914473 17.019524
147 1 1 25.149152 8.641713 16.755191
148 1 1 25.242005 8.434286 16.450638
149 1 1 25.056446 8.102921 16.437783
150 1 1 24.819907 7.824528 16.333155
151 1 1 24.843601 7.686900 15.979747
152 1 1 24.657209 7.355987 15.992178
153 1 1 24.491433 7.170948 16.279717
154 1 1 24.414743 7.146677 16.651106
155 1 1 24.103974 7.360525 16.696846
156 1 1 23.950161 7.675962 16.842589
157 1 1 24.008816 7.733046 17.213670
158 1 1 24.168347 8.065471 17.305558
159 1 1 24.105327 8.438331 17.268091
160 1 1 23.968094 8.784536 17.192531
161 1 1 24.185059 9.063952 17.331286
162 1 1 24.454232 9.128652 17.591593
163 1 1 24.318672 9.009611 17.926037
164 1 1 24.227124 8.645439 17.867751
165 1 1 24.129490 8.292299 17.968549
166 1 1 23.791136 8.295618 18.141482
167 1 1 23.428321 8.397407 18.092452
168 1 1 23.282262 8.169851 17.825460
169 1 1 23.042471 7.875117 17.819794
170 1 1 23.089208 7.677657 17.498507
171 1 1 22.835684 7.397191 17.460236
172 1 1 22.518348 7.189392 17.482983
173 1 1 22.179382 7.074242 17.355538
174 1 1 21.954649 6.851330 17.565789
175 1 1 21.629977 6.719621 17.418680
176 1 1 21.348555 6.709575 17.163532
177 1 1 21.095298 6.714017 16.880263
178 1 1 20.716634 6.718832 16.911740
179 1 1 20.554215 6.800198 16.577974
180 1 1 20.203614 6.802167 16.431430
181 1 1 19.864305 6.631160 16.426341
182 1 1 19.608612 6.386229 16.564290
183 1 1 19.418588 6.219505 16.280576
184 1 1 19.052548 6.233371 16.179469
185 1 1 19.009923 6.127787 15.816930
186 1 1 19.057162 6.033628 15.451823
187 1 1 19.123510 6.174316 15.105118
188 1 1 18.906787 6.031148 14.827747
189 1 1 18.577669 5.919307 14.981282
190 1 1 18.257158 6.028544 14.808829
191 1 1 18.362604 6.110043 14.452965
192 1 1 18.068392 6.091244 14.213203
193 1 1 17.999531 5.816929 13.959413
194 1 1 18.182915 5.522090 13.805011
195 1 1 18.165072 5.399830 13.445658
196 1 1 18.414502 5.601377 13.241786
197 1 1 18.722998 5.654292 13.457263
198 1 1 18.872454 5.458723 13.746772
199 1 1 19.001185 5.118730 13.857376
200 1 1 19.051296 4.901465 14.165085
201 1 1 19.011704 4.528640 14.103164
202 1 1 18.942040 4.397691 13.753308
203 1 1 19.185488 4.504356 13.481728
204 1 1 19.438145 4.776323 13.400497
205 1 1 19.706633 4.986570 13.232837
206 1 1 19.694474 5.353553 13.134980
207 1 1 19.501618 5.591018 12.909554
208 1 1 19.314620 5.870497 13.086537
209 1 1 19.410818 5.981158 13.437108
210 1 1 19.234434 6.176832 13.710970
211 1 1 19.315388 6.504465 13.885622
212 1 1 19.536126 6.804448 13.961021
213 1 1 19.542292 7.149409 13.801760
214 1 1 19.267620 7.341179 13.981148
215 1 1 19.343909 7.346240 14.353377
216 1 1 19.217637 7.299639 14.708741
217 1 1 19.170424 6.963945 14.880439
218 1 1 19.025871 6.767012 15.171509
219 1 1 18.792898 6.903180 15.439057
220 1 1 18.962970 6.904355 15.778871
221 1 1 18.931087 7.115899 16.092929
222 1 1 18.610282 7.203137 16.276977
223 1 1 18.354493 7.389805 16.066912
224 1 1 18.107152 7.587285 16.277207
225 1 1 18.104242 7.450640 16.631777
226 1 1 18.094802 7.109937 16.799800
227 1 1 18.197511 6.846397 16.546033
228 1 1 18.177391 6.672362 16.208828
229 1 1 18.519992 6.539665 16.111793
230 1 1 18.490952 6.458035 15.741802
231 1 1 18.200643 6.262238 15.594205
232 1 1 17.945168 6.092614 15.369795
233 1 1 17.807618 5.774379 15.525381
234 1 1 17.535641 5.576113 15.348975
235 1 1 17.456630 5.276544 15.128940
236 1 1 17.407170 5.070921 14.813229
237 1 1 17.077119 4.889288 14.862986
238 1 1 17.145054 4.581952 15.075893
239 1 1 16.835795 4.364827 15.035698
240 1 1 16.535379 4.155978 15.138323
241 1 1 16.226165 4.044349 15.328916
242 1 1 16.274787 3.735145 15.544390
243 1 1 16.131850 3.444105 15.742544
244 1 1 15.787048 3.298322 15.807806
245 1 1 15.522468 3.390976 15.551267
246 1 1 15.176863 3.239683 15.505796
247 1 1 14.904664 3.502409 15.541621
248 1 1 14.958864 3.800220 15.311902
249 1 1 14.797094 4.112089 15.167096
250 1 1 14.644880 4.456354 15.219173
251 1 1 14.535060 4.587859 14.879988
252 1 1 14.232778 4.696729 14.677077
253 1 1 14.245458 4.522985 14.339361
254 1 1 14.335502 4.417042 13.985711
255 1 1 14.453755 4.392536 13.625412
256 1 1 14.595375 4.579272 13.326291
257 1 1 14.660051 4.946188 13.401056
258 1 1 14.401985 5.134032 13.194860
259 1 1 14.032967 5.095817 13.112611
260 1 1 13.742462 5.224627 12.904248
261 1 1 13.410632 5.347675 12.765872
262 1 1 13.461717 5.433431 12.399217
263 1 1 13.405437 5.801942 12.325515
264 1 1 13.411408 6.163818 12.209713
265 1 1 13.230602 6.435745 12.015381
266 1 1 12.922041 6.358570 11.807453
267 1 1 12.793023 6.522624 11.489898
268 1 1 12.788218 6.808326 11.239397
269 1 1 12.661777 7.149600 11.348690
270 1 1 12.555006 7.514264 11.344212
271 1 1 12.629917 7.713471 11.029403
272 1 1 12.607088 7.877313 10.687300
273 1 1 12.849701 8.072023 10.469063
274 1 1 12.973461 8.049247 10.110504
275 1 1 13.133420 8.113512 9.771855
276 1 1 13.196992 8.155079 9.399524
277 1 1 12.987777 8.264617 9.101815
278 1 1 12.753843 8.562988 9.076329
279 1 1 12.848491 8.908242 8.948887
280 1 1 12.956268 9.165280 9.207181
281 1 1 12.783473 9.494966 9.283656
282 1 1 12.847182 9.812402 9.084720
283 1 1 13.069387 10.117602 9.041386
284 1 1 13.216716 10.233533 8.710849
285 1 1 13.269222 10.594869 8.605591
286 1 1 13.353056 10.809273 8.303262
287 1 1 13.731843 10.837541 8.292266
288 1 1 14.068804 10.696057 8.396381
289 1 1 14.342737 10.651923 8.136741
290 1 1 14.526227 10.319320 8.147068
291 1 1 14.702111 10.022012 8.305412
292 1 1 15.040854 9.919667 8.166926
293 1 1 15.127514 9.552678 8.213929
294 1 1 15.244147 9.221015 8.069719
295 1 1 15.477589 9.061767 7.815662
296 1 1 15.287037 8.905868 7.526205
297 1 1 15.007757 9.127250 7.394327
298 1 1 14.769780 9.406593 7.492994
299 1 1 14.525838 9.466990 7.778028
300 1 1 14.497535 9.405214 8.151903
301 1 1 14.259622 9.222440 8.385122
302 1 1 13.947584 9.038956 8.500734
303 1 1 13.640298 9.251029 8.571449
304 1 1 13.441063 9.561711 8.480997
305 1 1 13.076762 9.487075 8.559192
306 1 1 12.853820 9.385900 8.268571
307 1 1 13.037715 9.368028 7.936511
308 1 1 13.063605 9.229337 7.583673
309 1 1 13.157385 9.051075 7.261450
310 1 1 13.158476 8.778700 6.996477
311 1 1 12.963266 8.901872 6.694614
312 1 1 12.844407 9.249614 6.597926
313 1 1 13.092179 9.533352 6.647939
314 1 1 13.453857 9.589757 6.749958
315 1 1 13.805513 9.448231 6.723340
316 1 1 13.763107 9.074811 6.667131
317 1 1 13.787121 8.960124 6.305648
318 1 1 13.939953 8.658411 6.132409
319 1 1 13.988482 8.645364 5.755747
320 1 1 14.283765 8.418532 5.679883
321 1 1 14.192859 8.049619 5.673636
322 1 1 14.238938 7.692322 5.552740
323 1 1 14.490288 7.409046 5.521468
324 1 1 14.628885 7.105295 5.340013
325 1 1 14.674754 6.728335 5.354064
326 1 1 14.555641 6.376267 5.274943
327 1 1 14.528232 6.004837 5.350365
328 1 1 14.612622 5.918771 5.710741
329 1 1 14.549804 5.595149 5.899746
330 1 1 14.376926 5.357020 6.140179
331 1 1 14.065767 5.146313 6.083762
332 1 1 14.051261 4.969182 5.747884
333 1 1 13.737000 5.048862 5.549663
334 1 1 13.751214 5.079248 5.171147
335 1 1 13.503965 5.019896 4.888754
336 1 1 13.555115 4.949133 4.518922
337 1 1 13.755938 4.985674 4.198399
338 1 1 14.116716 4.873897 4.156621
339 1 1 14.198416 4.731924 3.813738
340 1 1 13.872333 4.646041 3.638540
341 1 1 13.579590 4.405987 3.605741
342 1 1 13.438508 4.280601 3.935550
343 1 1 13.454343 4.083158 4.259842
344 1 1 13.310199 3.974876 4.594353
345 1 1 13.064963 3.951961 4.883722
346 1 1 12.716696 3.853138 4.768204
347 1 1 12.431347 3.736925 4.990624
348 1 1 12.290422 3.624678 5.325199
349 1 1 12.130352 3.284605 5.269275
350 1 1 11.835853 3.250068 5.506926
351 1 1 11.814417 2.881680 5.597648
352 1 1 11.960963 2.807810 5.940383
353 1 1 12.197306 3.006553 6.161840
354 1 1 12.067781 3.359920 6.214331
355 1 1 11.897748 3.412984 6.549999
356 1 1 11.595088 3.454847 6.775929
357 1 1 11.217772 3.413181 6.758713
358 1 1 11.051789 3.524337 7.081968
359 1 1 10.857384 3.810004 7.240085
360 1 1 10.736278 4.097336 7.022891
361 1 1 10.859290 4.436157 7.143176
362 1 1 10.631296 4.563296 7.419318
363 1 1 10.384611 4.795128 7.591946
364 1 1 10.147678 4.715319 7.878115
365 1 1 9.879956 4.936734 8.032065
366 1 1 9.812225 4.803081 8.381277
367 1 1 9.722254 4.445456 8.472982
368 1 1 9.846619 4.145973 8.274883
369 1 1 9.876279 3.769196 8.314366
370 1 1 9.913277 3.575269 8.639055
371 1 1 10.203079 3.514965 8.877337
372 1 1 10.189825 3.510346 9.257078
373 1 1 10.139002 3.746221 9.550642
374 1 1 9.762162 3.757632 9.598191
375 1 1 9.485002 3.892994 9.376246
376 1 1 9.250850 3.653916 9.196205
377 1 1 9.312167 3.469676 8.869562
378 1 1 9.109679 3.578118 8.566843
379 1 1 8.753603 3.669344 8.470472
380 1 1 8.403275 3.807210 8.418867
381 1 1 8.317718 4.041897 8.132507
382 1 1 8.403540 4.390043 8.258320
383 1 1 8.615110 4.444448 8.569251
384 1 1 8.977449 4.502792 8.470728
385 1 1 9.146272 4.744905 8.710060
386 1 1 8.976880 5.082509 8.751658
387 1 1 8.795437 5.200998 9.063810
388 1 1 8.820500 5.577856 9.105640
389 1 1 8.534072 5.752815 9.283820
390 1 1 8.333912 6.056166 9.172850
391 1 1 8.226886 6.302627 9.441554
392 1 1 8.021119 6.613634 9.514597
393 1 1 8.142595 6.967327 9.447181
394 1 1 7.872901 7.231636 9.404683
395 1 1 7.600434 7.263085 9.667689
396 1 1 7.225011 7.287333 9.614121
397 1 1 6.962256 7.253849 9.886589
398 1 1 6.632619 7.441984 9.905141
399 1 1 6.331663 7.545401 10.112819
400 1 1 6.076434 7.710098 10.341147
401 1 1 5.696776 7.720644 10.328979
402 1 1 5.457329 7.619519 10.051780
403 1 1 5.262095 7.369792 9.842209
404 1 1 5.288162 7.281935 9.473425
405 1 1 5.351602 7.248149 9.100285
406 1 1 5.484628 7.023206 8.824414
407 1 1 5.815648 7.117582 8.663420
408 1 1 5.980575 7.448849 8.577044
409 1 1 5.849203 7.791657 8.478940
410 1 1 5.801630 8.153641 8.373561
411 1 1 5.552485 8.292940 8.624404
412 1 1 5.714454 8.316355 8.967359
413 1 1 5.445403 8.281114 9.233384
414 1 1 5.251394 8.578135 9.369542
415 1 1 4.962186 8.620744 9.126759
416 1 1 4.682419 8.863118 9.212695
417 1 1 4.566312 8.999685 9.547760
418 1 1 4.504919 8.991879 9.922686
419 1 1 4.193207 9.182876 10.026397
420 1 1 4.025173 9.378307 9.747163
421 1 1 3.746237 9.292560 9.503766
422 1 1 3.410620 9.372636 9.662980
423 1 1 3.139631 9.128922 9.555423
424 1 1 3.302953 8.908443 9.292526
425 1 1 3.465533 8.743883 8.991049
426 1 1 3.504018 8.795860 8.616593
427 1 1 3.347606 8.814689 8.270789
428 1 1 3.133565 9.124938 8.222495
429 1 1 2.906820 9.312116 7.981765
430 1 1 2.858316 9.603793 7.743077
431 1 1 3.111900 9.593989 7.460236
432 1 1 3.273836 9.879956 7.269450
433 1 1 3.083594 10.208265 7.289964
434 1 1 3.075296 10.506480 7.054594
435 1 1 2.834410 10.437279 6.768962
436 1 1 3.045860 10.476078 6.455618
437 1 1 3.010867 10.341428 6.102002
438 1 1 2.864573 10.580185 5.845111
439 1 1 2.862994 10.836758 5.564811
440 1 1 2.615255 11.123141 5.596584
441 1 1 2.658098 11.500429 5.611374
442 1 1 2.698515 11.812670 5.824146
443 1 1 3.058114 11.904551 5.905671
444 1 1 3.116334 11.817923 6.271056
445 1 1 2.913020 11.964177 6.556841
446 1 1 3.075316 12.050192 6.889499
447 1 1 3.199894 11.800700 7.147636
448 1 1 3.534145 11.627585 7.199663
449 1 1 3.772190 11.376820 7.357308
450 1 1 3.965321 11.361852 7.684227
451 1 1 24.913764 11.975699 3.512916
452 1 1 25.268262 11.848447 3.563295
453 1 1 25.274137 11.659977 3.893211
454 1 1 25.174761 11.892240 4.177073
455 1 1 25.375610 12.187834 4.306242
456 1 1 25.697990 12.380257 4.364932
457 1 1 25.726223 12.564885 4.695862
458 1 1 25.919073 12.373174 4.961297
459 1 1 26.089128 12.231573 5.270215
460 1 1 26.221189 11.888993 5.368187
461 1 1 25.993287 11.601999 5.468660
462 1 1 25.984403 11.250302 5.612294
463 1 1 26.121636 10.897780 5.576303
464 1 1 26.107085 10.558748 5.747314
465 1 1 25.842400 10.337729 5.906978
466 1 1 25.530070 10.554121 5.911949
467 1 1 25.155934 10.611340 5.945839
468 1 1 24.915286 10.827580 5.746517
469 1 1 24.564168 10.691765 5.694840
470 1 1 24.273138 10.452310 5.743447
471 1 1 24.009117 10.383065 5.479064
472 1 1 23.852106 10.691247 5.321674
473 1 1 23.919483 11.065211 5.318313
474 1 1 23.633214 11.279774 5.190200
475 1 1 23.581760 11.416523 4.839412
476 1 1 23.730050 11.521401 4.505630
477 1 1 23.953793 11.621835 4.215368
478 1 1 24.144808 11.630726 3.886987
479 1 1 24.093196 11.939422 3.671480
480 1 1 23.983242 12.088682 3.339770
481 1 1 23.710672 12.349955 3.382683
482 1 1 23.522803 12.620237 3.192807
483 1 1 23.409988 12.983104 3.193348
484 1 1 23.223154 13.218895 3.425503
485 1 1 22.883519 13.249081 3.593242
486 1 1 22.727529 13.578686 3.700144
487 1 1 22.706975 13.949224 3.618417
488 1 1 22.431785 14.104686 3.407463
489 1 1 22.575326 14.415483 3.242535
490 1 1 22.332816 14.606511 3.020956
491 1 1 22.322711 14.962123 3.154517
492 1 1 21.959348 15.053698 3.217614
493 1 1 21.715323 14.996433 3.503223
494 1 1 21.579937 15.197071 3.796165
495 1 1 21.480073 15.557381 3.728313
496 1 1 21.422537 15.932332 3.705913
497 1 1 21.146393 16.099060 3.505050
498 1 1 20.806026 16.257679 3.563273
499 1 1 20.471667 16.079029 3.589513
500 1 1 20.155469 15.872892 3.545621
501 1 1 19.887165 15.832573 3.811679
502 1 1 19.609071 15.802812 4.068930
503 1 1 19.519518 16.132687 4.234951
504 1 1 19.259406 16.245271 4.488064
505 1 1 19.313363 16.600324 4.612265
506 1 1 19.456932 16.907513 4.440733
507 1 1 19.573239 17.225808 4.612665
508 1 1 19.380812 17.553293 4.623874
509 1 1 19.006862 17.590638 4.680149
510 1 1 18.839108 17.594221 5.021097
511 1 1 18.464239 17.554827 5.069277
512 1 1 18.210162 17.720834 4.840614
513 1 1 18.102329 18.047612 5.001822
514 1 1 17.891574 18.305221 5.185179
515 1 1 18.004121 18.642186 5.320041
516 1 1 18.303104 18.876073 5.337548
517 1 1 18.571577 18.683861 5.525635
518 1 1 18.924211 18.789188 5.431001
519 1 1 19.225568 18.993337 5.540119
520 1 1 19.560239 19.054887 5.370983
521 1 1 19.641394 19.425652 5.352336
522 1 1 19.726419 19.646698 5.649505
523 1 1 20.090258 19.745680 5.602350
524 1 1 20.369670 19.999578 5.559166
525 1 1 20.301205 20.355728 5.445723
526 1 1 20.169585 20.614672 5.690721
527 1 1 20.253347 20.968866 5.581493
528 1 1 20.345848 21.292297 5.404758
529 1 1 20.049882 21.451981 5.227825
530 1 1 19.883511 21.315177 4.914767
531 1 1 19.814691 21.318375 4.541065
532 1 1 19.923079 21.164457 4.210972
533 1 1 19.915433 21.314898 3.862103
534 1 1 20.148366 21.223333 3.576169
535 1 1 20.488557 21.392363 3.586094
536 1 1 20.712725 21.263071 3.864362
537 1 1 20.802046 21.554855 4.090822
538 1 1 20.882208 21.881125 3.913279
539 1 1 20.997365 22.184444 3.715449
540 1 1 21.193601 22.451873 3.530050
541 1 1 21.545538 22.460450 3.673112
542 1 1 21.664056 22.761413 3.872548
543 1 1 21.985812 22.655096 4.044507
544 1 1 22.329763 22.587133 4.191063
545 1 1 22.545659 22.565800 4.503047
546 1 1 22.888267 22.408745 4.551563
547 1 1 23.103017 22.106770 4.635784
548 1 1 23.358644 21.841344 4.728541
549 1 1 23.618035 21.730653 4.473858
550 1 1 23.444540 21.533162 4.199455
551 1 1 23.215714 21.240243 4.278432
552 1 1 23.046339 20.953231 4.095849
553 1 1 22.950771 20.931429 3.728710
554 1 1 22.696943 21.044292 3.469416
555 1 1 22.487189 21.161759 3.175129
556 1 1 22.382873 21.362781 2.869992
557 1 1 22.413953 21.366522 2.491284
558 1 1 22.387034 21.589448 2.184723
559 1 1 22.662444 21.554657 1.925225
560 1 1 23.014226 21.601565 2.061054
561 1 1 23.115582 21.966975 2.085586
562 1 1 23.472638 22.027554 1.970515
563 1 1 23.611255 22.380926 1.988229
564 1 1 23.861734 22.646556 1.882869
565 1 1 23.811472 22.973967 1.696654
566 1 1 23.645372 23.284291 1.839866
567 1 1 23.565143 23.553079 1.583514
568 1 1 23.430882 23.682263 1.252326
569 1 1 23.295934 23.858132 0.943686
570 1 1 23.568534 24.099943 0.835908
571 1 1 23.925590 24.223974 0.874988
572 1 1 24.211437 24.415229 1.036584
573 1 1 24.239464 24.558275 1.387515
574 1 1 24.087677 24.761879 1.670191
575 1 1 24.315965 25.028659 1.815494
576 1 1 24.343273 25.133755 2.179649
577 1 1 24.553216 24.887845 2.379279
578 1 1 24.913461 25.003568 2.344189
579 1 1 25.123567 24.741799 2.522327
580 1 1 24.922997 24.420820 2.556146
581 1 1 24.868198 24.054078 2.639197
582 1 1 24.846581 23.813445 2.345890
583 1 1 25.180184 23.781543 2.166751
584 1 1 25.552620 23.852759 2.141845
585 1 1 25.914884 23.755262 2.202334
586 1 1 26.189299 23.504892 2.122264
587 1 1 26.551700 23.485977 2.234994
588 1 1 26.904489 23.413738 2.113662
589 1 1 27.077749 23.728701 1.990457
590 1 1 26.989331 23.912037 1.669568
591 1 1 27.247896 24.182642 1.603862
592 1 1 27.049684 24.484187 1.484771
593 1 1 26.979261 24.795888 1.279142
594 1 1 26.934193 25.165958 1.205542
595 1 1 26.579784 25.275113 1.288482
596 1 1 26.296824 25.468689 1.124585
597 1 1 26.282283 25.815010 0.968858
598 1 1 25.919304 25.893056 0.887899
599 1 1 25.671966 25.619632 0.795902
600 1 1 25.347702 25.470679 0.665266
601 1 1 25.049293 25.686698 0.572056
602 1 1 24.863213 25.801640 0.882801
603 1 1 24.909274 26.155508 1.013397
604 1 1 24.750065 26.492031 1.089585
605 1 1 24.864839 26.708572 1.379993
606 1 1 24.808559 27.065858 1.263462
607 1 1 24.572692 27.293501 1.455673
608 1 1 24.329913 27.499110 1.247868
609 1 1 24.031337 27.716302 1.157978
610 1 1 23.985422 28.003183 0.913048
611 1 1 23.907374 28.308159 1.125881
612 1 1 23.665469 28.346285 1.416447
613 1 1 23.303102 28.321612 1.304725
614 1 1 23.147433 28.290923 0.959435
615 1 1 23.224755 28.183415 0.603256
616 1 1 23.149011 28.016535 0.270369
617 1 1 23.376260 27.789987 0.066816
618 1 1 23.546051 27.532736 0.289061
619 1 1 23.438628 27.222939 0.481119
620 1 1 23.116780 27.062324 0.358577
621 1 1 23.200782 26.745065 0.167028
622 1 1 23.187722 26.365829 0.187264
623 1 1 23.029621 26.086185 0.390249
624 1 1 22.901378 26.195058 0.730984
625 1 1 23.207942 26.286252 0.936171
626 1 1 23.121225 26.592776 1.143351
627 1 1 23.037802 26.943706 1.023817
628 1 1 22.980260 27.305832 1.123586
629 1 1 23.170293 27.618246 1.020217
630 1 1 23.420745 27.707948 1.291560
631 1 1 23.443693 27.493573 1.604477
632 1 1 23.787006 27.382861 1.723973
633 1 1 23.931952 27.194754 2.020631
634 1 1 23.752049 27.000486 2.293203
635 1 1 23.375490 27.051500 2.292725
636 1 1 23.181845 26.738748 2.388058
637 1 1 22.958963 26.558365 2.637428
638 1 1 22.947982 26.194969 2.747985
639 1 1 22.963104 26.179596 3.127372
640 1 1 22.807574 26.466595 3.321902
641 1 1 22.890540 26.822233 3.426966
642 1 1 23.185217 27.061850 3.414742
643 1 1 23.165477 27.441320 3.418285
644 1 1 23.164648 27.795440 3.280451
645 1 1 22.882910 28.020003 3.401259
646 1 1 22.631308 28.297858 3.463660
647 1 1 22.331217 28.528905 3.432636
648 1 1 22.050490 28.353777 3.245760
649 1 1 21.994520 28.558001 2.930229
650 1 1 22.096104 28.918749 2.867445
651 1 1 22.324836 29.211860 2.788914
652 1 1 22.608014 29.285055 2.546317
653 1 1 22.968289 29.313202 2.663831
654 1 1 23.294727 29.232128 2.840651
655 1 1 23.572827 29.404051 2.646995
656 1 1 23.496285 29.693416 2.412881
657 1 1 23.822745 29.869608 2.330535
658 1 1 23.977850 30.093084 2.065204
659 1 1 24.249204 30.326015 2.193694
660 1 1 24.350767 30.671967 2.313705
661 1 1 24.242684 30.697729 2.677098
662 1 1 24.120582 30.879153 2.987865
663 1 1 24.184958 31.039139 3.326480
664 1 1 23.997004 31.369313 3.334088
665 1 1 24.029174 31.528006 3.677864
666 1 1 24.294041 31.800400 3.670969
667 1 1 24.597937 32.004030 3.568102
668 1 1 24.916868 32.003635 3.774702
669 1 1 25.227353 31.909291 3.576969
670 1 1 25.528937 32.140453 3.573685
671 1 1 25.876116 32.131652 3.727925
672 1 1 25.997656 31.968400 4.048825
673 1 1 25.805276 32.105801 4.346333
674 1 1 25.784897 31.885229 4.655093
675 1 1 25.960127 31.972506 4.980788
676 1 1 26.067865 32.264938 5.198219
677 1 1 26.346446 32.521121 5.232321
678 1 1 26.613523 0.046185 5.118578
679 1 1 26.421752 0.169896 5.422419
680 1 1 26.611018 0.338560 5.705492
681 1 1 26.605117 0.486495 6.055465
682 1 1 26.759098 0.447544 6.400679
683 1 1 26.819984 0.195405 6.678381
684 1 1 27.111755 0.120763 6.910111
685 1 1 27.473211 0.121869 6.792859
686 1 1 27.776716 32.681619 6.629902
687 1 1 27.617485 32.700847 6.974396
688 1 1 27.328826 32.709047 7.221394
689 1 1 27.315167 32.569777 7.574689
690 1 1 27.509087 32.256759 7.668574
691 1 1 27.859968 32.225222 7.811012
692 1 1 27.827006 32.162564 8.184358
693 1 1 27.651188 32.463864 8.335044
694 1 1 27.463271 32.467885 8.665303
695 1 1 27.249449 32.681561 8.895570
696 1 1 27.146643 0.292685 9.050764
697 1 1 27.210585 0.601369 9.262956
698 1 1 27.195560 0.662060 9.637778
699 1 1 27.379937 0.418637 9.863942
700 1 1 27.683533 0.190167 9.869521
701 1 1 27.797303 32.557272 9.952056
702 1 1 28.003512 32.344382 10.189870
703 1 1 28.032021 32.062786 10.443426
704 1 1 28.145423 32.216474 10.771939
705 1 1 28.070284 32.307157 11.133229
706 1 1 27.937805 32.558338 11.385731
707 1 1 27.617531 32.501677 11.582236
708 1 1 27.684443 32.663536 11.919466
709 1 1 28.050782 0.009428 11.995841
710 1 1 28.159012 0.089409 11.640469
711 1 1 28.417896 0.195640 11.383382
712 1 1 28.332607 0.352167 11.047785
713 1 1 28.145229 0.534734 10.772179
714 1 1 27.975723 0.848613 10.641230
715 1 1 27.890114 1.148027 10.423463
716 1 1 27.988254 1.270207 10.077283
717 1 1 27.730735 1.377304 9.819186
718 1 1 27.423607 1.341721 9.598264
719 1 1 27.165126 1.617317 9.638694
720 1 1 27.152536 1.935617 9.845881
721 1 1 26.824001 2.124590 9.873340
722 1 1 26.486409 2.296231 9.904507
723 1 1 26.181754 2.479515 10.038642
724 1 1 25.818551 2.507496 10.146811
725 1 1 25.815341 2.456251 10.523326
726 1 1 25.702193 2.409728 10.883094
727 1 1 25.485660 2.102592 10.939495
728 1 1 25.292962 2.105568 11.266998
729 1 1 24.936308 1.989481 11.205996
730 1 1 24.612365 1.811461 11.294143
731 1 1 24.272237 1.660990 11.372060
732 1 1 24.171534 1.573694 11.727923
733 1 1 23.896246 1.727530 11.939940
734 1 1 23.721100 1.438758 12.114109
735 1 1 23.576182 1.191049 11.865032
736 1 1 23.347974 0.902416 11.770100
737 1 1 22.977399 0.835662 11.821267
738 1 1 22.750129 0.560057 11.691690
739 1 1 22.849161 0.416639 11.354015
740 1 1 23.013869 0.630342 11.086429
741 1 1 23.191800 0.853092 10.835186
742 1 1 23.350564 1.132364 11.038165
743 1 1 23.728226 1.171574 11.022861
744 1 1 23.830167 1.306143 10.682421
745 1 1 23.573330 1.478465 10.461651
746 1 1 23.305113 1.278667 10.281263
747 1 1 23.150226 0.943100 10.192916
748 1 1 22.921496 0.775295 9.940085
749 1 1 22.984530 0.438127 9.776546
750 1 1 23.297716 0.228498 9.825231
751 1 1 23.051316 32.698470 9.679989
752 1 1 23.117727 32.365074 9.510177
753 1 1 23.216172 32.018509 9.389341
754 1 1 23.262678 31.643896 9.345725
755 1 1 23.084542 31.338578 9.485184
756 1 1 22.870722 31.108290 9.698839
757 1 1 22.960077 30.748279 9.616331
758 1 1 23.030606 30.592852 9.276820
759 1 1 23.220876 30.398128 9.011716
760 1 1 23.590543 30.358358 8.933201
761 1 1 23.928925 30.442032 8.781887
762 1 1 24.276794 30.578229 8.712335
763 1 1 24.440049 30.595122 8.369607
764 1 1 24.326645 30.467121 8.030262
765 1 1 24.326807 30.319876 7.679949
766 1 1 24.027752 30.215878 7.469828
767 1 1 24.163955 30.112102 7.130595
768 1 1 24.050522 30.277455 6.807808
769 1 1 24.277351 30.348850 6.511411
770 1 1 24.357507 30.024894 6.329677
771 1 1 24.183701 29.690282 6.282493
772 1 1 24.052152 29.511746 5.973916
773 1 1 24.155396 29.466066 5.611074
774 1 1 23.867166 29.323936 5.408288
775 1 1 23.940075 28.951649 5.386218
776 1 1 24.105268 28.850236 5.713061
777 1 1 24.209973 28.824380 6.077435
778 1 1 24.443617 28.563723 6.225314
779 1 1 24.786416 28.411248 6.164979
780 1 1 25.128755 28.422477 6.000426
781 1 1 25.465248 28.283382 6.109167
782 1 1 25.727164 28.141063 5.873487
783 1 1 26.034640 28.308269 5.725496
784 1 1 26.146578 28.661824 5.642620
785 1 1 26.263567 28.913026 5.902641
786 1 1 26.333831 28.806498 6.260573
787 1 1 26.639234 28.994642 6.385996
788 1 1 26.864360 28.918790 6.682585
789 1 1 26.737719 28.676189 6.946226
790 1 1 26.991468 28.420764 7.067756
791 1 1 27.371435 28.425439 7.065978
792 1 1 27.717786 28.355478 6.926169
793 1 1 27.920925 28.047140 7.015958
794 1 1 27.889519 27.800584 7.303401
795 1 1 27.659456 27.505189 7.368306
796 1 1 27.775840 27.344379 7.692335
797 1 1 27.916386 27.406963 8.039798
798 1 1 28.242511 27.600838 8.061129
799 1 1 28.340631 27.737387 8.401903
800 1 1 28.513047 27.922522 8.685448
801 1 1 28.705880 28.142170 8.928285
802 1 1 28.813995 28.485744 9.049400
803 1 1 28.791537 28.810898 8.854027
804 1 1 28.681531 28.791233 8.490830
805 1 1 28.940778 28.829376 8.215629
806 1 1 28.865610 28.561513 7.956788
807 1 1 29.026185 28.229161 8.047110
808 1 1 29.374569 28.218780 8.198507
809 1 1 29.688746 28.009722 8.243092
810 1 1 29.728128 27.733354 7.985274
811 1 1 29.494967 27.455733 8.099126
812 1 1 29.401408 27.126518 7.934007
813 1 1 29.533897 26.815361 8.107294
814 1 1 29.514976 26.620149 8.432769