LAMMPS data file for polymer system

27000 atoms
26940 bonds

1 atom types
1 bond types

0.0 43.75506318037897 xlo xhi
0.0 43.75506318037897 ylo yhi
0.0 43.75506318037897 zlo zhi

Masses

1 5.65487

Atoms

1 1 1 17.760515 29.107061 39.670217
2 1 1 17.408165 29.118053 39.528340
3 1 1 17.321272 28.763969 39.421225
4 1 1 17.418933 28.401539 39.480446
5 1 1 17.549738 28.307412 39.824582
6 1 1 17.892871 28.150393 39.779808
7 1 1 17.972149 27.844204 39.569182
8 1 1 18.325714 27.740185 39.661768
9 1 1 18.534531 27.435582 39.572254
10 1 1 18.574103 27.219339 39.262298
11 1 1 18.505848 26.878424 39.108941
12 1 1 18.798200 26.733166 38.914440
13 1 1 19.139262 26.633768 38.779544
14 1 1 19.221141 26.708556 38.416085
15 1 1 19.584471 26.634401 38.333064
16 1 1 19.857360 26.786701 38.549249
17 1 1 19.911430 26.974881 38.874925
18 1 1 19.787870 27.086147 39.216616
19 1 1 20.014019 27.312641 39.421450
20 1 1 20.363057 27.196077 39.516242
21 1 1 20.592003 27.453190 39.677106
22 1 1 20.667097 27.821499 39.621351
23 1 1 20.585902 28.046223 39.916827
24 1 1 20.448511 27.913711 40.245406
25 1 1 20.318366 27.604289 40.423509
26 1 1 20.220942 27.281392 40.248449
27 1 1 20.360547 26.930219 40.208598
28 1 1 20.504438 26.700656 39.942147
29 1 1 20.483170 26.333962 40.039531
30 1 1 20.161537 26.182125 39.905750
31 1 1 20.009673 25.860472 40.039454
32 1 1 19.891478 25.499724 40.056489
33 1 1 19.649888 25.302632 40.273720
34 1 1 19.649319 25.208435 40.641859
35 1 1 19.991865 25.258618 40.798524
36 1 1 20.336939 25.389037 40.707336
37 1 1 20.433453 25.558891 40.381400
38 1 1 20.803100 25.639377 40.345580
39 1 1 20.966226 25.769758 40.663056
40 1 1 21.044905 25.927638 40.999632
41 1 1 21.095486 25.710665 41.307470
42 1 1 21.186242 25.343478 41.270905
43 1 1 21.565522 25.326899 41.254418
44 1 1 21.726561 25.123786 41.532287
45 1 1 21.799562 25.050802 41.897998
46 1 1 21.625905 24.720642 41.970370
47 1 1 21.463727 24.600876 42.292479
48 1 1 21.551212 24.265300 42.447833
49 1 1 21.674268 24.130275 42.781038
50 1 1 21.667803 23.804603 42.976731
51 1 1 21.547304 23.450568 42.909354
52 1 1 21.352535 23.124649 42.893809
53 1 1 20.981095 23.087125 42.822925
54 1 1 20.812394 22.850996 42.577602
55 1 1 20.797620 22.705040 42.227062
56 1 1 20.886969 22.548039 41.892746
57 1 1 21.144064 22.295103 41.773054
58 1 1 21.467897 22.097705 41.796846
59 1 1 21.754234 21.965637 41.584788
60 1 1 21.984932 21.663679 41.584391
61 1 1 21.821320 21.322747 41.621760
62 1 1 21.814284 21.008070 41.408854
63 1 1 22.061608 21.059939 41.125057
64 1 1 22.134822 21.081152 40.752781
65 1 1 21.937580 20.943313 40.458679
66 1 1 21.643335 21.099703 40.276025
67 1 1 21.271555 21.111342 40.198279
68 1 1 20.959380 20.937228 40.327240
69 1 1 20.753839 20.734998 40.574740
70 1 1 20.712139 20.413333 40.772711
71 1 1 20.388281 20.279425 40.919627
72 1 1 20.175926 19.978836 41.014239
73 1 1 20.084596 19.741555 41.296651
74 1 1 20.160370 19.389148 41.176369
75 1 1 20.318876 19.334614 40.835338
76 1 1 20.135671 19.379190 40.505415
77 1 1 19.936384 19.303153 40.190926
78 1 1 19.614658 19.503782 40.216226
79 1 1 19.404047 19.603663 39.916115
80 1 1 19.236145 19.855238 39.686074
81 1 1 19.254669 20.221403 39.586173
82 1 1 19.601065 20.376491 39.567258
83 1 1 19.860467 20.150767 39.728998
84 1 1 20.183053 20.174495 39.928434
85 1 1 20.490431 20.250364 40.138584
86 1 1 20.759386 20.466273 39.979066
87 1 1 21.012930 20.486264 39.696725
88 1 1 21.096511 20.625570 39.353202
89 1 1 21.286286 20.844805 39.107598
90 1 1 21.520121 20.745895 38.824866
91 1 1 21.697436 20.573304 38.536470
92 1 1 21.943596 20.303113 38.640403
93 1 1 22.022212 20.257642 39.009391
94 1 1 22.048321 19.893851 39.116042
95 1 1 22.231527 19.586826 38.987313
96 1 1 22.545633 19.708690 38.811566
97 1 1 22.483325 19.982519 38.555567
98 1 1 22.668417 20.302176 38.644786
99 1 1 22.790097 20.506867 38.348652
100 1 1 23.074045 20.681703 38.166427
101 1 1 23.174502 21.030392 38.279228
102 1 1 23.237441 21.119992 38.643110
103 1 1 23.235506 21.475362 38.777677
104 1 1 23.345048 21.695266 38.487776
105 1 1 23.564080 21.985193 38.598986
106 1 1 23.844824 22.012655 38.344372
107 1 1 23.977223 21.802812 38.056558
108 1 1 23.872357 21.860326 37.695871
109 1 1 23.677667 21.551718 37.589771
110 1 1 23.305043 21.484881 37.622702
111 1 1 22.980196 21.579107 37.795895
112 1 1 22.963486 21.949420 37.879494
113 1 1 23.276533 22.125682 38.003321
114 1 1 23.171667 22.405236 38.238380
115 1 1 23.331726 22.749490 38.254823
116 1 1 23.208338 23.037879 38.469315
117 1 1 22.967941 22.944077 38.748260
118 1 1 22.684118 22.709257 38.841555
119 1 1 22.336846 22.710394 38.687279
120 1 1 22.002679 22.890866 38.700007
121 1 1 21.850663 22.967808 38.360344
122 1 1 21.746677 23.332438 38.335207
123 1 1 21.773493 23.709640 38.372619
124 1 1 21.623821 23.920844 38.094426
125 1 1 21.385164 24.213074 38.049216
126 1 1 21.030400 24.286411 38.163954
127 1 1 20.666102 24.320699 38.266479
128 1 1 20.484956 23.997983 38.180223
129 1 1 20.757115 23.732802 38.177363
130 1 1 20.960056 23.760153 38.497468
131 1 1 21.255499 23.936863 38.658363
132 1 1 21.458416 24.216717 38.816179
133 1 1 21.741134 24.467893 38.853346
134 1 1 21.794059 24.759540 39.091130
135 1 1 21.500645 24.740008 39.331809
136 1 1 21.205253 24.682681 39.563881
137 1 1 21.202011 24.597943 39.934298
138 1 1 20.894992 24.775237 40.071070
139 1 1 20.724756 24.947198 40.364070
140 1 1 20.440663 24.763953 40.537599
141 1 1 20.140680 24.600420 40.371265
142 1 1 19.826918 24.624174 40.584313
143 1 1 19.588207 24.328514 40.582832
144 1 1 19.325003 24.230321 40.326937
145 1 1 19.028699 24.449710 40.234895
146 1 1 18.817018 24.493193 40.547466
147 1 1 18.579041 24.741959 40.708346
148 1 1 18.244302 24.562967 40.725998
149 1 1 17.893428 24.506311 40.860450
150 1 1 17.671316 24.243416 40.699351
151 1 1 17.477353 23.991305 40.491461
152 1 1 17.425803 23.931821 40.119703
153 1 1 17.388409 24.211985 39.865715
154 1 1 17.574870 24.101634 39.553536
155 1 1 17.723882 23.837307 39.324787
156 1 1 17.738911 23.960338 38.965569
157 1 1 17.453406 24.026842 38.723775
158 1 1 17.140780 24.242378 38.709312
159 1 1 16.763283 24.228601 38.668005
160 1 1 16.587374 24.470705 38.433822
161 1 1 16.516063 24.837505 38.364738
162 1 1 16.149145 24.889429 38.280625
163 1 1 15.803613 24.968856 38.417369
164 1 1 15.428251 24.983333 38.474760
165 1 1 15.197971 24.681379 38.460781
166 1 1 14.966951 24.700275 38.761901
167 1 1 14.750303 24.585809 39.052350
168 1 1 14.407773 24.421349 39.057428
169 1 1 14.065706 24.457227 39.218992
170 1 1 13.878260 24.483658 39.548485
171 1 1 13.891650 24.655449 39.887171
172 1 1 14.246996 24.654721 40.021813
173 1 1 14.551849 24.450670 40.120948
174 1 1 14.896834 24.609600 40.109700
175 1 1 15.098309 24.747309 40.400980
176 1 1 15.039908 24.617913 40.753465
177 1 1 14.929154 24.381833 41.029870
178 1 1 14.779077 24.067006 41.180738
179 1 1 14.892688 23.871011 41.485826
180 1 1 15.248447 23.793767 41.594771
181 1 1 15.428842 23.503712 41.761281
182 1 1 15.470537 23.126963 41.734421
183 1 1 15.336366 22.929180 42.029853
184 1 1 15.049044 22.684423 41.985810
185 1 1 14.710316 22.806858 42.106941
186 1 1 14.450809 23.082750 42.137593
187 1 1 14.340015 23.175969 42.488926
188 1 1 14.432699 23.108020 42.851132
189 1 1 14.617266 22.908435 43.116652
190 1 1 14.749706 22.886305 43.472137
191 1 1 14.606090 23.183686 43.660123
192 1 1 14.716665 23.544673 43.703269
193 1 1 14.913607 23.453209 0.260052
194 1 1 15.257294 23.311169 0.338180
195 1 1 15.491179 23.491751 0.099250
196 1 1 15.638167 23.500795 43.504009
197 1 1 15.835271 23.671152 43.227371
198 1 1 15.683964 23.898353 42.963012
199 1 1 15.519680 23.887745 42.620524
200 1 1 15.147799 23.905115 42.544350
201 1 1 14.936807 23.936549 42.858824
202 1 1 14.964590 23.925857 43.237656
203 1 1 15.179089 24.127476 43.477948
204 1 1 15.088743 24.331748 0.030310
205 1 1 14.797107 24.130272 0.167260
206 1 1 14.859690 24.103972 0.541147
207 1 1 15.079827 24.159950 0.845788
208 1 1 15.335643 23.960459 1.043681
209 1 1 15.321665 23.580757 1.038107
210 1 1 15.630024 23.401701 0.906755
211 1 1 15.825495 23.227074 0.631625
212 1 1 16.202634 23.180664 0.628177
213 1 1 16.400223 22.947491 0.402369
214 1 1 16.511123 22.776411 0.081694
215 1 1 16.537857 23.141029 43.733130
216 1 1 16.162515 23.082487 43.723589
217 1 1 15.892024 22.904792 43.524443
218 1 1 15.770096 22.640301 43.280357
219 1 1 15.740803 22.273339 43.374593
220 1 1 15.604383 21.943246 43.244871
221 1 1 15.407196 21.682141 43.438110
222 1 1 15.585735 21.599965 0.008271
223 1 1 15.312191 21.371777 0.140574
224 1 1 14.935700 21.320667 0.134075
225 1 1 14.674481 21.593431 0.176084
226 1 1 14.319916 21.700704 0.260795
227 1 1 14.073618 21.583256 0.525262
228 1 1 14.006520 21.270880 0.730979
229 1 1 14.276031 21.034088 0.856250
230 1 1 14.484452 20.716712 0.840980
231 1 1 14.348469 20.396933 0.687192
232 1 1 14.268537 20.031459 0.753819
233 1 1 14.592777 19.837991 0.796693
234 1 1 14.956435 19.743012 0.852656
235 1 1 15.141515 19.424702 0.946595
236 1 1 15.001680 19.190160 1.210861
237 1 1 14.870697 18.975278 1.495588
238 1 1 14.753633 19.186855 1.788728
239 1 1 14.548239 19.505870 1.767680
240 1 1 14.525234 19.875064 1.854667
241 1 1 14.162032 19.970125 1.795946
242 1 1 13.952965 19.868341 2.096498
243 1 1 13.726029 19.563894 2.081933
244 1 1 13.646734 19.245242 2.273173
245 1 1 13.627201 19.052857 2.600292
246 1 1 13.714263 18.930354 2.949310
247 1 1 13.955987 19.178721 3.105141
248 1 1 13.876795 19.526106 2.973034
249 1 1 13.755116 19.874979 3.061812
250 1 1 13.622550 20.216325 3.163347
251 1 1 13.721902 20.556991 3.299274
252 1 1 13.736969 20.928459 3.377913
253 1 1 13.832995 21.240430 3.183354
254 1 1 13.763498 21.433839 2.863725
255 1 1 13.949008 21.284169 2.567778
256 1 1 14.281134 21.120089 2.483100
257 1 1 14.296241 20.749887 2.398710
258 1 1 14.324594 20.504389 2.110045
259 1 1 14.392699 20.665462 1.772677
260 1 1 14.719134 20.527158 1.635884
261 1 1 14.927300 20.408781 1.340836
262 1 1 15.216995 20.176693 1.422151
263 1 1 15.270259 20.154055 1.797718
264 1 1 15.205721 20.155265 2.172195
265 1 1 15.434824 19.962199 2.405941
266 1 1 15.793459 19.908959 2.519723
267 1 1 16.086271 19.971101 2.753817
268 1 1 16.263405 20.077284 3.072797
269 1 1 16.325514 19.859006 3.377587
270 1 1 16.668033 19.924156 3.528703
271 1 1 17.036661 19.992633 3.590544
272 1 1 17.309550 19.947545 3.851118
273 1 1 17.122658 19.869268 4.172589
274 1 1 16.756096 19.891157 4.270330
275 1 1 16.505038 20.061899 4.498839
276 1 1 16.272075 19.798820 4.643468
277 1 1 15.919048 19.664078 4.603262
278 1 1 15.735743 19.700260 4.272369
279 1 1 15.550511 19.393833 4.145125
280 1 1 15.487832 19.022233 4.193963
281 1 1 15.404385 18.657468 4.260168
282 1 1 15.693206 18.475155 4.426733
283 1 1 15.631508 18.231816 4.712004
284 1 1 15.872333 18.063200 4.952777
285 1 1 16.109875 17.799001 4.817970
286 1 1 16.383973 17.751537 4.559093
287 1 1 16.725362 17.724260 4.394445
288 1 1 17.078998 17.839737 4.316940
289 1 1 17.299750 18.109501 4.165626
290 1 1 17.170904 18.366774 3.917414
291 1 1 16.963411 18.283778 3.610074
292 1 1 16.599631 18.385859 3.569528
293 1 1 16.255719 18.353953 3.411078
294 1 1 15.934098 18.200804 3.543387
295 1 1 15.695078 17.916395 3.463509
296 1 1 15.366549 17.781710 3.328125
297 1 1 15.272549 17.441674 3.186918
298 1 1 15.392198 17.137721 3.381074
299 1 1 15.666309 16.891523 3.288069
300 1 1 15.650415 16.773548 2.927197
301 1 1 15.983440 16.608326 2.848481
302 1 1 16.006560 16.280617 3.039459
303 1 1 16.150385 16.305009 3.390343
304 1 1 16.408229 16.553122 3.518232
305 1 1 16.506280 16.680754 3.862465
306 1 1 16.227454 16.846084 4.060762
307 1 1 15.854818 16.897489 4.006906
308 1 1 15.562851 17.127679 4.085437
309 1 1 15.417547 17.439644 4.246573
310 1 1 15.489952 17.658054 4.548987
311 1 1 15.413138 17.514210 4.892219
312 1 1 15.552276 17.178946 5.004640
313 1 1 15.662643 17.177491 5.368256
314 1 1 15.708652 17.249674 5.738490
315 1 1 15.570880 17.536910 5.945647
316 1 1 15.522710 17.898409 6.052409
317 1 1 15.506989 18.210881 6.268081
318 1 1 15.654298 18.547306 6.170519
319 1 1 15.650642 18.684655 5.816229
320 1 1 15.785913 18.936307 5.565683
321 1 1 15.513896 19.086770 5.347126
322 1 1 15.418589 19.399368 5.153220
323 1 1 15.611165 19.688428 5.307359
324 1 1 15.622335 20.036106 5.154405
325 1 1 15.469833 20.218548 4.857996
326 1 1 15.107999 20.136645 4.775725
327 1 1 14.910137 19.816422 4.723689
328 1 1 14.947989 19.438570 4.709714
329 1 1 14.922122 19.296689 4.358145
330 1 1 14.791531 19.003028 4.155392
331 1 1 14.873997 18.985000 3.784887
332 1 1 14.744216 18.947885 3.429669
333 1 1 14.559830 18.676398 3.238106
334 1 1 14.187616 18.618544 3.188009
335 1 1 13.978435 18.444020 3.452933
336 1 1 13.635898 18.390868 3.297232
337 1 1 13.352110 18.140080 3.266089
338 1 1 13.266456 17.842949 3.486943
339 1 1 13.135704 17.495902 3.569783
340 1 1 13.164335 17.197044 3.802729
341 1 1 13.309404 16.854527 3.725028
342 1 1 13.500640 16.531343 3.666882
343 1 1 13.815114 16.535643 3.880160
344 1 1 13.797064 16.358135 4.215668
345 1 1 13.640967 16.218880 4.532908
346 1 1 13.567255 16.043939 4.862093
347 1 1 13.230328 16.141054 5.008547
348 1 1 12.905737 16.244570 4.840246
349 1 1 12.601959 16.068573 4.985657
350 1 1 12.506969 15.778901 5.212520
351 1 1 12.219413 15.798846 5.460136
352 1 1 12.134953 15.968196 5.789662
353 1 1 12.246738 16.228084 6.043358
354 1 1 12.311160 16.164803 6.412473
355 1 1 12.453940 16.329253 6.723873
356 1 1 12.328205 16.400076 7.075405
357 1 1 12.279711 16.110393 7.316511
358 1 1 12.247743 16.270207 7.659786
359 1 1 12.009216 16.565723 7.646568
360 1 1 11.730570 16.806300 7.552338
361 1 1 11.406460 16.950503 7.688567
362 1 1 11.169596 16.763627 7.919592
363 1 1 10.912836 16.612787 8.155646
364 1 1 10.632090 16.357362 8.174077
365 1 1 10.701147 16.016331 8.326814
366 1 1 10.733250 15.958171 8.700962
367 1 1 10.724286 15.588162 8.787060
368 1 1 10.876833 15.246394 8.721301
369 1 1 11.005243 15.260308 8.363925
370 1 1 10.730998 15.382485 8.130982
371 1 1 10.681598 15.097748 7.884235
372 1 1 10.786572 14.819995 7.647098
373 1 1 10.858731 14.522347 7.422157
374 1 1 11.081942 14.271253 7.244595
375 1 1 11.438888 14.243712 7.117194
376 1 1 11.497317 14.120823 6.762392
377 1 1 11.480121 13.749034 6.685728
378 1 1 11.530169 13.615857 6.333366
379 1 1 11.713966 13.332336 6.159484
380 1 1 11.986660 13.495141 5.950840
381 1 1 11.866108 13.616478 5.611511
382 1 1 12.010945 13.643735 5.261256
383 1 1 12.291636 13.653695 5.005300
384 1 1 12.577666 13.903740 5.013296
385 1 1 12.601365 14.173770 4.746983
386 1 1 12.264674 14.349943 4.745580
387 1 1 11.974486 14.519764 4.922646
388 1 1 11.744111 14.576356 5.219503
389 1 1 11.550126 14.301398 5.396048
390 1 1 11.340468 14.366922 5.706129
391 1 1 11.344716 14.568350 6.028323
392 1 1 11.195044 14.584943 6.377211
393 1 1 10.854636 14.622978 6.541759
394 1 1 10.499761 14.501190 6.602018
395 1 1 10.374879 14.191666 6.783674
396 1 1 10.431213 14.028459 7.122185
397 1 1 10.250144 13.800993 7.366876
398 1 1 10.115605 13.452582 7.436941
399 1 1 10.036068 13.265980 7.115611
400 1 1 10.184220 12.920591 7.059417
401 1 1 9.904421 12.664834 7.085884
402 1 1 9.588138 12.603953 7.287525
403 1 1 9.266960 12.759680 7.417884
404 1 1 8.967847 12.525602 7.429669
405 1 1 8.637823 12.425720 7.589381
406 1 1 8.589889 12.061498 7.686567
407 1 1 8.278819 11.880541 7.564543
408 1 1 8.210266 11.689793 7.243115
409 1 1 8.025157 11.721657 6.912783
410 1 1 7.771421 11.495451 6.742932
411 1 1 7.706610 11.174939 6.936507
412 1 1 7.366892 11.202419 7.104545
413 1 1 7.082625 11.446952 7.042934
414 1 1 7.035104 11.443336 6.665934
415 1 1 7.125494 11.740497 6.447017
416 1 1 7.167906 12.097957 6.325263
417 1 1 7.479092 12.263009 6.467815
418 1 1 7.535044 12.584392 6.272923
419 1 1 7.387183 12.550335 5.924531
420 1 1 7.140189 12.561237 5.635957
421 1 1 7.000762 12.534667 5.283460
422 1 1 6.879224 12.238998 5.078012
423 1 1 7.060493 11.908931 5.128972
424 1 1 7.145273 11.639171 5.382827
425 1 1 6.912188 11.381207 5.536207
426 1 1 6.864295 11.047107 5.710802
427 1 1 6.639027 10.764186 5.594140
428 1 1 6.285161 10.801404 5.460748
429 1 1 5.968037 10.981918 5.354695
430 1 1 5.925215 11.321992 5.518756
431 1 1 5.931962 11.486587 5.861193
432 1 1 5.911756 11.232203 6.142760
433 1 1 5.908753 10.964555 6.412492
434 1 1 6.241021 10.830131 6.538699
435 1 1 6.524697 11.033354 6.689124
436 1 1 6.427648 11.147023 7.038496
437 1 1 6.621988 11.150856 7.365020
438 1 1 6.694086 11.016970 7.713267
439 1 1 6.507874 10.942330 8.035995
440 1 1 6.150461 10.825550 7.981054
441 1 1 6.013406 10.499174 8.119238
442 1 1 6.010575 10.232206 7.848831
443 1 1 5.795523 10.128296 7.553272
444 1 1 5.477238 10.210852 7.362801
445 1 1 5.304231 10.423163 7.099376
446 1 1 4.929148 10.433415 7.039310
447 1 1 4.610191 10.639406 7.024002
448 1 1 4.284801 10.583301 7.212080
449 1 1 4.235206 10.902766 7.411786
450 1 1 4.438070 11.217290 7.477521
451 1 1 30.317783 6.616190 17.109779
452 1 1 30.316438 6.881306 16.837545
453 1 1 30.196646 7.155084 16.602820
454 1 1 29.993353 7.469884 16.665851
455 1 1 29.665143 7.637284 16.572818
456 1 1 29.430327 7.466320 16.327801
457 1 1 29.442604 7.629353 15.984771
458 1 1 29.657437 7.899791 15.826310
459 1 1 30.036368 7.880057 15.846852
460 1 1 30.185978 7.755996 16.173388
461 1 1 30.419851 7.461948 16.116474
462 1 1 30.687706 7.212676 16.219026
463 1 1 31.017246 7.303250 16.385157
464 1 1 31.325122 7.335774 16.605508
465 1 1 31.314721 7.498322 16.948830
466 1 1 31.163033 7.504896 17.297180
467 1 1 31.428803 7.467741 17.566227
468 1 1 31.708540 7.211177 17.584179
469 1 1 31.925049 7.023189 17.833547
470 1 1 32.096794 7.029350 18.172466
471 1 1 32.358680 7.265394 18.314237
472 1 1 32.415228 7.630199 18.404342
473 1 1 32.201166 7.936908 18.337205
474 1 1 31.845583 7.910980 18.468692
475 1 1 31.751469 7.638132 18.715869
476 1 1 31.596021 7.738665 19.047726
477 1 1 31.663235 7.637410 19.407767
478 1 1 32.022043 7.538623 19.484570
479 1 1 32.307558 7.347026 19.322793
480 1 1 32.621174 7.512104 19.185700
481 1 1 32.909482 7.648797 19.392082
482 1 1 33.228031 7.518694 19.230839
483 1 1 33.190748 7.441366 18.860663
484 1 1 33.211838 7.779118 18.687809
485 1 1 33.179832 8.078552 18.456044
486 1 1 33.083084 8.426975 18.339248
487 1 1 32.733127 8.422042 18.191243
488 1 1 32.629696 8.324483 17.838846
489 1 1 32.889428 8.446676 17.589831
490 1 1 33.114747 8.731160 17.702525
491 1 1 33.346725 8.895418 17.954726
492 1 1 33.525759 8.940371 18.286880
493 1 1 33.804365 9.047258 18.522154
494 1 1 33.847101 8.994440 18.896031
495 1 1 34.027736 8.891174 19.214005
496 1 1 34.344587 8.718347 19.332900
497 1 1 34.457618 8.360663 19.393614
498 1 1 34.274488 8.179343 19.672874
499 1 1 34.252042 7.825641 19.809957
500 1 1 33.937567 7.620788 19.869456
501 1 1 33.910400 7.324427 19.633167
502 1 1 33.781080 7.025815 19.436935
503 1 1 33.563549 6.723523 19.512431
504 1 1 33.616887 6.373679 19.373996
505 1 1 33.964604 6.249270 19.284468
506 1 1 34.160493 5.930168 19.349284
507 1 1 34.229315 5.726308 19.662501
508 1 1 34.413212 5.549716 19.944276
509 1 1 34.457650 5.214222 20.117103
510 1 1 34.142545 5.047701 20.248934
511 1 1 33.901441 4.853485 20.469272
512 1 1 33.815875 4.691451 20.802174
513 1 1 34.024715 4.407807 20.944766
514 1 1 33.903118 4.332849 21.296895
515 1 1 33.553704 4.452976 21.385661
516 1 1 33.407619 4.779465 21.513974
517 1 1 33.162396 5.037601 21.381191
518 1 1 33.166111 5.376706 21.552637
519 1 1 32.868978 5.431550 21.783080
520 1 1 32.562482 5.484104 22.001479
521 1 1 32.263309 5.358030 22.198966
522 1 1 31.954888 5.579831 22.189994
523 1 1 31.728992 5.812412 22.388179
524 1 1 31.580743 6.130331 22.242065
525 1 1 31.476268 6.375285 22.513142
526 1 1 31.297734 6.531086 22.810214
527 1 1 30.928525 6.571372 22.890600
528 1 1 30.787022 6.919333 22.948048
529 1 1 30.466240 7.110993 23.017078
530 1 1 30.346822 7.471319 22.999634
531 1 1 30.533303 7.627754 22.707824
532 1 1 30.589228 7.540651 22.342194
533 1 1 30.872580 7.532920 22.089109
534 1 1 30.803609 7.347563 21.764631
535 1 1 30.645770 7.341347 21.419019
536 1 1 30.446083 7.047686 21.283784
537 1 1 30.392238 7.023522 20.908395
538 1 1 30.192299 7.047411 20.586132
539 1 1 30.126312 6.997208 20.215288
540 1 1 30.220274 7.295285 19.999137
541 1 1 30.362262 7.606218 19.833126
542 1 1 30.243452 7.787747 19.521146
543 1 1 29.993014 7.552877 19.358307
544 1 1 29.777205 7.303695 19.169270
545 1 1 30.010803 7.156571 18.908145
546 1 1 30.255778 7.003855 18.661031
547 1 1 30.506580 6.767816 18.821604
548 1 1 30.491713 6.643614 19.180426
549 1 1 30.394872 6.309385 19.333111
550 1 1 30.288808 6.044194 19.583759
551 1 1 30.189287 6.011836 19.949065
552 1 1 30.163214 5.673819 20.120718
553 1 1 29.865054 5.631518 20.352476
554 1 1 29.622558 5.360016 20.243470
555 1 1 29.270716 5.489579 20.305281
556 1 1 29.021512 5.258815 20.475708
557 1 1 28.653463 5.193401 20.543982
558 1 1 28.331749 5.180215 20.342176
559 1 1 28.002487 5.004495 20.413653
560 1 1 27.783521 4.696439 20.453095
561 1 1 27.517875 4.519338 20.247020
562 1 1 27.528808 4.645264 19.888658
563 1 1 27.468516 4.575762 19.519965
564 1 1 27.808544 4.610081 19.353823
565 1 1 28.087511 4.778950 19.548914
566 1 1 28.061241 5.151708 19.617917
567 1 1 28.102552 5.523413 19.550622
568 1 1 27.884074 5.829621 19.604510
569 1 1 27.526117 5.730776 19.523909
570 1 1 27.230166 5.964879 19.479088
571 1 1 26.857564 6.024426 19.524045
572 1 1 26.488441 6.099446 19.574247
573 1 1 26.168677 6.280817 19.478041
574 1 1 25.864080 6.504148 19.519798
575 1 1 25.573479 6.562891 19.757497
576 1 1 25.574601 6.619962 20.133185
577 1 1 25.339103 6.369430 20.294970
578 1 1 25.144907 6.226753 20.588791
579 1 1 24.862712 6.468218 20.669169
580 1 1 24.578253 6.712463 20.731035
581 1 1 24.300037 6.931232 20.869368
582 1 1 24.127767 7.247458 20.748026
583 1 1 23.962218 7.371834 20.429397
584 1 1 23.673633 7.146309 20.328119
585 1 1 23.478897 6.844913 20.453172
586 1 1 23.217120 6.962743 20.702148
587 1 1 22.841184 7.011779 20.727974
588 1 1 22.483035 7.131465 20.685486
589 1 1 22.431470 7.425987 20.450971
590 1 1 22.294721 7.730706 20.269736
591 1 1 22.120610 8.039034 20.407646
592 1 1 21.964469 8.310864 20.622423
593 1 1 21.724675 8.128071 20.853692
594 1 1 21.513553 7.868371 20.673738
595 1 1 21.406923 7.589394 20.438787
596 1 1 21.542031 7.437470 20.117750
597 1 1 21.628378 7.372845 19.753377
598 1 1 21.915610 7.434822 19.512428
599 1 1 21.920585 7.325299 19.148588
600 1 1 22.024231 7.036220 18.924777
601 1 1 21.731814 6.940385 18.701824
602 1 1 21.373883 7.065446 18.727221
603 1 1 21.064275 7.211916 18.891811
604 1 1 21.020583 7.350177 19.243058
605 1 1 20.848802 7.612513 19.457700
606 1 1 20.922339 7.969782 19.351157
607 1 1 21.217480 8.201904 19.409561
608 1 1 21.546685 8.088009 19.257733
609 1 1 21.806537 8.181265 18.996619
610 1 1 21.796516 8.512916 18.811397
611 1 1 21.515260 8.767478 18.789182
612 1 1 21.574366 9.089829 18.596839
613 1 1 21.318643 9.162151 18.325222
614 1 1 21.303454 9.065949 17.957915
615 1 1 20.993082 9.081370 17.739211
616 1 1 20.652536 9.004370 17.589213
617 1 1 20.533715 9.326269 17.425926
618 1 1 20.170660 9.378981 17.326867
619 1 1 19.796570 9.420889 17.274904
620 1 1 19.600120 9.156239 17.464029
621 1 1 19.789261 9.046671 17.774867
622 1 1 19.981605 8.971450 18.093843
623 1 1 20.244633 9.212695 18.224293
624 1 1 20.096720 9.439979 18.490495
625 1 1 19.853682 9.334024 18.762720
626 1 1 19.713222 9.253045 19.106396
627 1 1 19.589834 8.897099 19.156175
628 1 1 19.217621 8.836326 19.109652
629 1 1 19.058112 8.516757 19.239392
630 1 1 18.696347 8.481289 19.128628
631 1 1 18.458510 8.365060 18.856003
632 1 1 18.241043 8.101697 19.022581
633 1 1 18.412269 7.773226 19.107365
634 1 1 18.339831 7.479710 18.877146
635 1 1 18.402602 7.152831 18.693815
636 1 1 18.473605 6.798300 18.810717
637 1 1 18.477319 6.447570 18.664516
638 1 1 18.495783 6.119836 18.473077
639 1 1 18.515498 5.754119 18.574382
640 1 1 18.269892 5.614582 18.828562
641 1 1 18.334945 5.394298 19.131288
642 1 1 18.504409 5.413266 19.470879
643 1 1 18.714387 5.542307 19.760115
644 1 1 18.967916 5.496653 20.039469
645 1 1 19.221458 5.768378 20.118728
646 1 1 19.554971 5.926880 20.029028
647 1 1 19.832567 5.713662 19.881113
648 1 1 20.101170 5.629623 20.136436
649 1 1 20.223428 5.290718 20.257250
650 1 1 20.044894 4.968857 20.351757
651 1 1 19.859094 4.656913 20.239643
652 1 1 19.793036 4.282925 20.226635
653 1 1 19.539929 4.217282 19.950904
654 1 1 19.547098 3.982879 19.651900
655 1 1 19.597253 3.910157 19.282311
656 1 1 19.619084 4.166076 19.002259
657 1 1 19.677565 4.228957 18.632089
658 1 1 19.482744 4.188981 18.308288
659 1 1 19.460320 4.336523 17.958820
660 1 1 19.719396 4.608367 17.900676
661 1 1 19.815905 4.970523 17.963355
662 1 1 20.003612 5.211773 17.737602
663 1 1 20.053155 5.064566 17.390794
664 1 1 19.947591 5.178388 17.043950
665 1 1 19.643437 5.011065 16.889375
666 1 1 19.276559 4.977569 16.982534
667 1 1 18.928860 5.126093 16.944511
668 1 1 18.588372 5.213220 17.089000
669 1 1 18.328214 4.999825 16.912418
670 1 1 18.003570 5.105397 16.745502
671 1 1 17.670030 5.224666 16.883074
672 1 1 17.329571 5.058271 16.854786
673 1 1 17.340571 4.681961 16.803117
674 1 1 17.042953 4.445691 16.802873
675 1 1 16.703735 4.545039 16.663370
676 1 1 16.419281 4.634517 16.427829
677 1 1 16.587145 4.728551 16.100141
678 1 1 16.892064 4.953852 16.074367
679 1 1 16.948511 5.285119 16.251783
680 1 1 17.043034 5.630392 16.124302
681 1 1 17.276629 5.580179 15.828815
682 1 1 17.242688 5.900076 15.626542
683 1 1 17.372456 6.059892 15.307138
684 1 1 17.743763 5.986515 15.273270
685 1 1 17.916447 5.672925 15.400713
686 1 1 17.846859 5.344943 15.579557
687 1 1 17.926072 5.004652 15.430132
688 1 1 17.716616 4.734342 15.264419
689 1 1 17.969946 4.487134 15.126171
690 1 1 17.990984 4.212424 14.864462
691 1 1 18.021252 4.305471 14.497275
692 1 1 17.902321 4.664895 14.464561
693 1 1 18.107685 4.964764 14.575487
694 1 1 18.061891 5.341937 14.568944
695 1 1 17.881740 5.599356 14.355212
696 1 1 18.037759 5.873113 14.142810
697 1 1 18.306605 6.113738 14.262065
698 1 1 18.219245 6.471967 14.353935
699 1 1 18.400667 6.756535 14.179273
700 1 1 18.353976 6.903306 13.831885
701 1 1 18.199363 6.708313 13.544705
702 1 1 18.178705 6.329102 13.557822
703 1 1 18.459262 6.074311 13.585550
704 1 1 18.782173 6.227713 13.714377
705 1 1 18.884305 6.592061 13.679453
706 1 1 18.966494 6.857175 13.419915
707 1 1 18.932344 6.754440 13.055664
708 1 1 19.002147 6.524505 12.761287
709 1 1 18.691133 6.342162 12.641200
710 1 1 18.469830 6.293230 12.946209
711 1 1 18.112573 6.168020 12.979221
712 1 1 17.856258 5.913563 13.097349
713 1 1 17.599827 5.639723 13.157809
714 1 1 17.749509 5.345258 13.345653
715 1 1 17.491803 5.084167 13.444746
716 1 1 17.292218 4.786655 13.318049
717 1 1 17.247411 4.537307 13.034820
718 1 1 16.965140 4.493719 12.784175
719 1 1 16.643425 4.368456 12.625402
720 1 1 16.383695 4.521382 12.393985
721 1 1 16.007420 4.572524 12.379777
722 1 1 15.886526 4.822167 12.120040
723 1 1 15.832201 4.894939 11.751051
724 1 1 15.809374 4.961056 11.377544
725 1 1 15.459881 4.942416 11.229533
726 1 1 15.162959 4.710259 11.181158
727 1 1 14.873498 4.850366 10.978716
728 1 1 14.755707 5.197229 10.877664
729 1 1 14.583779 5.522363 10.973209
730 1 1 14.703943 5.832974 11.156187
731 1 1 14.571076 6.179026 11.072553
732 1 1 14.284085 6.199312 10.824309
733 1 1 14.129820 5.875814 10.698009
734 1 1 14.059097 5.806852 10.331072
735 1 1 13.704766 5.675781 10.290209
736 1 1 13.699145 5.306794 10.380859
737 1 1 13.990689 5.085386 10.482745
738 1 1 13.924884 4.905178 10.810761
739 1 1 13.867116 4.653872 11.089881
740 1 1 13.925053 4.547150 11.449956
741 1 1 14.030089 4.280983 11.700001
742 1 1 14.294160 4.396632 11.947573
743 1 1 14.576750 4.571654 11.763427
744 1 1 14.841878 4.713628 11.995699
745 1 1 14.803509 4.660223 12.369966
746 1 1 14.462015 4.616961 12.530933
747 1 1 14.191315 4.848713 12.662887
748 1 1 13.861444 4.679142 12.580236
749 1 1 13.663056 4.366975 12.493092
750 1 1 13.869084 4.105124 12.310373
751 1 1 13.998943 3.792741 12.483443
752 1 1 14.361977 3.681923 12.465380
753 1 1 14.495424 3.783023 12.124248
754 1 1 14.820454 3.976113 12.162608
755 1 1 15.057731 3.939746 12.457187
756 1 1 15.178784 4.107511 12.775937
757 1 1 15.509834 4.021563 12.941524
758 1 1 15.888962 3.996953 12.934034
759 1 1 16.029074 4.119786 13.265215
760 1 1 16.029658 4.207499 13.634953
761 1 1 15.817693 4.217444 13.950186
762 1 1 15.943662 4.070234 14.277082
763 1 1 15.920279 3.908874 14.620326
764 1 1 15.937663 3.538213 14.702232
765 1 1 16.045356 3.290473 14.969490
766 1 1 16.306414 3.019021 15.020112
767 1 1 16.647263 3.021670 15.188086
768 1 1 16.941918 3.028044 14.948215
769 1 1 17.131302 3.289049 14.747193
770 1 1 17.471764 3.457818 14.748808
771 1 1 17.452456 3.794629 14.573920
772 1 1 17.294083 3.950819 14.265825
773 1 1 17.393400 4.308309 14.183747
774 1 1 17.292571 4.428188 13.837536
775 1 1 17.001278 4.214754 13.719239
776 1 1 16.959677 3.906624 13.500778
777 1 1 17.031804 3.564726 13.351435
778 1 1 17.129172 3.244636 13.531607
779 1 1 17.123434 2.909248 13.710162
780 1 1 16.944166 2.577363 13.664165
781 1 1 16.748096 2.252513 13.684878
782 1 1 16.639499 2.034959 13.392856
783 1 1 16.414271 1.816906 13.178087
784 1 1 16.169939 1.575512 13.340663
785 1 1 16.235193 1.544670 13.713745
786 1 1 16.455976 1.742116 13.951800
787 1 1 16.590148 1.847477 14.291354
788 1 1 16.588386 2.002304 14.638378
789 1 1 16.941775 2.059155 14.765986
790 1 1 17.187990 1.885184 14.997314
791 1 1 17.096153 1.636461 15.269532
792 1 1 17.240884 1.752775 15.601080
793 1 1 17.505545 1.548547 15.781759
794 1 1 17.606928 1.395922 16.114667
795 1 1 17.410885 1.208751 16.381001
796 1 1 17.388789 1.126454 16.751324
797 1 1 17.253229 1.429775 16.935768
798 1 1 17.160389 1.766135 16.785294
799 1 1 16.897966 2.040966 16.786816
800 1 1 16.551561 1.941958 16.665980
801 1 1 16.569491 1.877331 16.291946
802 1 1 16.517129 2.198574 16.095831
803 1 1 16.495984 2.329399 15.739688