LAMMPS data file for polymer system

27000 atoms
26940 bonds

1 atom types
1 bond types

0.0 43.75506318037897 xlo xhi
0.0 43.75506318037897 ylo yhi
0.0 43.75506318037897 zlo zhi

Masses

1 5.65487

Atoms

1 1 1 11.202874 11.536657 15.272230
2 1 1 10.915663 11.652937 15.492205
3 1 1 11.064164 11.793779 15.812378
4 1 1 11.322227 11.799695 16.091248
5 1 1 11.636191 11.996274 16.006495
6 1 1 11.957644 12.037583 15.808096
7 1 1 12.097129 12.167499 15.479362
8 1 1 12.368882 12.115462 15.218897
9 1 1 12.637656 11.929880 15.024681
10 1 1 12.960584 12.120124 15.087330
11 1 1 13.162847 12.140763 14.766294
12 1 1 13.311279 11.886472 14.526078
13 1 1 13.218876 11.630540 14.260822
14 1 1 13.228106 11.259701 14.178400
15 1 1 13.074458 11.006760 14.416756
16 1 1 12.808638 10.767999 14.546111
17 1 1 12.599466 10.541467 14.324006
18 1 1 12.662351 10.437634 13.963917
19 1 1 12.817087 10.111427 13.845402
20 1 1 12.824745 9.797591 13.631280
21 1 1 12.789352 9.431557 13.535537
22 1 1 12.601423 9.228260 13.795830
23 1 1 12.481112 9.119543 14.139496
24 1 1 12.157513 9.144194 14.337172
25 1 1 11.807411 9.133931 14.484561
26 1 1 11.565939 9.372877 14.314279
27 1 1 11.341181 9.215051 14.051650
28 1 1 11.075917 8.964684 13.945106
29 1 1 10.796175 8.781641 14.125771
30 1 1 10.562719 8.609707 13.880136
31 1 1 10.285245 8.436230 13.686968
32 1 1 9.916552 8.481251 13.767209
33 1 1 9.802852 8.449824 14.128435
34 1 1 9.789750 8.457397 14.508134
35 1 1 9.473117 8.482162 14.716774
36 1 1 9.107405 8.440357 14.622398
37 1 1 8.839551 8.170931 14.614394
38 1 1 8.530511 8.007009 14.762799
39 1 1 8.174769 7.970305 14.891253
40 1 1 8.091295 8.001695 15.260640
41 1 1 8.300317 8.023332 15.577250
42 1 1 8.643619 8.142746 15.466417
43 1 1 8.857150 8.445560 15.382106
44 1 1 9.233515 8.494867 15.399948
45 1 1 9.541932 8.275879 15.436323
46 1 1 9.707175 8.087156 15.721767
47 1 1 9.649880 7.721604 15.808309
48 1 1 9.692613 7.443216 15.553213
49 1 1 9.768102 7.107224 15.392556
50 1 1 9.595626 6.799684 15.534230
51 1 1 9.252137 6.835965 15.692657
52 1 1 8.993306 6.904433 15.422994
53 1 1 8.960016 6.939103 15.046046
54 1 1 9.126875 7.069874 14.730677
55 1 1 9.320797 7.396454 14.718860
56 1 1 9.292993 7.690756 14.957635
57 1 1 9.060706 7.661181 15.256914
58 1 1 8.966790 7.656780 15.625099
59 1 1 8.981251 7.400890 15.905654
60 1 1 8.761430 7.480493 16.205224
61 1 1 8.576176 7.697578 16.456134
62 1 1 8.549950 7.945803 16.742658
63 1 1 8.465592 8.314200 16.782250
64 1 1 8.113009 8.455374 16.794708
65 1 1 7.825613 8.700881 16.755603
66 1 1 7.505383 8.903172 16.725076
67 1 1 7.231861 8.909925 16.461372
68 1 1 7.379344 8.842995 16.117615
69 1 1 7.287587 9.099142 15.852342
70 1 1 7.420336 9.073800 15.497187
71 1 1 7.480014 9.115099 15.124182
72 1 1 7.362783 9.199224 14.772642
73 1 1 7.240651 9.538998 14.654164
74 1 1 7.165120 9.909026 14.612034
75 1 1 7.048617 9.992675 14.260140
76 1 1 7.118496 10.015350 13.887309
77 1 1 7.066188 9.717247 13.657530
78 1 1 6.830008 9.481444 13.475827
79 1 1 6.744231 9.459397 13.106292
80 1 1 6.453182 9.541217 12.876084
81 1 1 6.417083 9.784083 12.586062
82 1 1 6.086869 9.972104 12.588653
83 1 1 5.837056 10.237560 12.696014
84 1 1 5.651531 10.471211 12.460668
85 1 1 5.502913 10.452062 12.111460
86 1 1 5.611078 10.627931 11.792445
87 1 1 5.375278 10.803779 11.551871
88 1 1 5.035999 10.968666 11.506027
89 1 1 4.717766 11.010199 11.302550
90 1 1 4.516856 10.778583 11.078074
91 1 1 4.403590 10.623164 10.750331
92 1 1 4.167992 10.337141 10.666164
93 1 1 3.832909 10.442020 10.811487
94 1 1 3.729264 10.721353 11.047350
95 1 1 3.868036 11.056838 10.935135
96 1 1 3.850295 11.401236 10.775526
97 1 1 3.907750 11.774974 10.813190
98 1 1 3.724137 11.954171 11.093502
99 1 1 3.386932 12.113164 11.019924
100 1 1 3.130047 12.368434 10.904829
101 1 1 2.910540 12.431717 10.601164
102 1 1 2.641680 12.657839 10.456309
103 1 1 2.309667 12.477759 10.414607
104 1 1 1.990312 12.682441 10.391860
105 1 1 1.665988 12.604346 10.573835
106 1 1 1.298730 12.642367 10.663701
107 1 1 1.133993 12.975027 10.744937
108 1 1 1.094596 13.317926 10.903898
109 1 1 1.391916 13.528751 10.796411
110 1 1 1.533892 13.514578 10.444215
111 1 1 1.374720 13.763692 10.205455
112 1 1 1.015046 13.675971 10.119783
113 1 1 0.783486 13.400416 9.997923
114 1 1 0.600474 13.500742 9.680368
115 1 1 0.453918 13.778788 9.466798
116 1 1 0.104424 13.905483 9.545552
117 1 1 0.033302 14.180246 9.798232
118 1 1 43.628980 13.984841 9.513954
119 1 1 43.402611 13.685336 9.455187
120 1 1 43.111284 13.500892 9.295472
121 1 1 43.028008 13.131036 9.321394
122 1 1 42.900844 12.824442 9.136382
123 1 1 42.822994 12.516344 9.344745
124 1 1 42.734080 12.317251 9.655963
125 1 1 42.476866 12.064594 9.535942
126 1 1 42.106020 11.986697 9.507569
127 1 1 41.867803 12.186232 9.726290
128 1 1 41.588590 12.398034 9.873191
129 1 1 41.241325 12.272330 9.962664
130 1 1 41.221240 11.917472 10.097099
131 1 1 41.154024 11.551650 10.019278
132 1 1 40.951404 11.230262 10.026720
133 1 1 41.060482 10.967720 10.278858
134 1 1 40.864631 10.704966 10.471220
135 1 1 40.531233 10.828867 10.604988
136 1 1 40.538879 11.183428 10.741474
137 1 1 40.600578 11.505764 10.549920
138 1 1 40.505041 11.841983 10.400825
139 1 1 40.429901 12.077825 10.689153
140 1 1 40.061746 12.165749 10.655518
141 1 1 39.813049 12.433834 10.758866
142 1 1 39.488166 12.624147 10.810169
143 1 1 39.547275 12.977950 10.684752
144 1 1 39.665688 13.098289 10.344316
145 1 1 39.599853 13.457756 10.240158
146 1 1 39.387811 13.743690 10.107191
147 1 1 39.511654 14.007382 9.863204
148 1 1 39.832937 14.173445 9.979826
149 1 1 39.928950 14.491595 10.164114
150 1 1 39.761262 14.823756 10.241249
151 1 1 39.737187 15.032824 10.557652
152 1 1 40.007507 15.122374 10.809263
153 1 1 39.872762 15.226111 11.149090
154 1 1 39.622358 15.019372 11.346465
155 1 1 39.320901 14.838877 11.491189
156 1 1 39.159630 14.503001 11.416495
157 1 1 39.091773 14.129262 11.405797
158 1 1 39.032404 13.758451 11.463888
159 1 1 38.939404 13.548610 11.161039
160 1 1 38.605063 13.374577 11.112779
161 1 1 38.260440 13.532802 11.137259
162 1 1 38.324215 13.900194 11.210442
163 1 1 38.282169 14.273157 11.151025
164 1 1 38.528946 14.424660 10.904959
165 1 1 38.816347 14.671989 10.930027
166 1 1 38.665210 15.001397 11.044253
167 1 1 38.859777 15.289329 11.198003
168 1 1 39.206728 15.342497 11.052407
169 1 1 39.274850 15.441511 10.691913
170 1 1 39.178905 15.769003 10.524750
171 1 1 39.185390 16.040872 10.259334
172 1 1 39.272035 16.406443 10.202322
173 1 1 39.361154 16.715830 10.404158
174 1 1 39.079919 16.969641 10.433944
175 1 1 39.083200 17.177789 10.751849
176 1 1 39.016848 17.543428 10.831256
177 1 1 38.943347 17.865308 10.643132
178 1 1 38.640600 18.092420 10.677262
179 1 1 38.498185 18.383846 10.875223
180 1 1 38.481324 18.529919 11.225620
181 1 1 38.770639 18.716162 11.386897
182 1 1 39.061694 18.596030 11.599631
183 1 1 39.265738 18.279616 11.651088
184 1 1 39.336084 18.211947 12.018338
185 1 1 39.465157 17.889673 12.172868
186 1 1 39.752878 17.783202 11.948634
187 1 1 39.941019 17.514651 12.140684
188 1 1 40.212949 17.304667 11.978324
189 1 1 40.027550 17.020979 11.806428
190 1 1 40.069792 16.879475 11.456296
191 1 1 40.267140 16.780273 11.147083
192 1 1 40.330032 16.718838 10.777394
193 1 1 40.028241 16.748964 10.548451
194 1 1 39.912923 16.888642 10.214398
195 1 1 40.019649 17.053024 9.888839
196 1 1 40.196248 16.911344 9.583652
197 1 1 40.110615 17.057517 9.243505
198 1 1 40.062335 17.191305 8.891128
199 1 1 39.932537 17.520158 8.751813
200 1 1 39.849662 17.889571 8.719170
201 1 1 39.595208 18.077070 8.930114
202 1 1 39.495775 18.040307 9.295027
203 1 1 39.780557 18.026751 9.546255
204 1 1 39.836707 18.204554 9.877364
205 1 1 39.535775 18.433247 9.916603
206 1 1 39.580644 18.810041 9.936926
207 1 1 39.352541 19.090964 9.820944
208 1 1 39.197296 19.400874 9.665205
209 1 1 39.024500 19.552557 9.362659
210 1 1 39.057608 19.781992 9.061556
211 1 1 39.027174 19.840904 8.687386
212 1 1 39.271989 19.956399 8.420690
213 1 1 39.366548 20.224923 8.168989
214 1 1 39.478754 20.534528 8.358606
215 1 1 39.711609 20.769155 8.171179
216 1 1 39.875088 20.770412 7.828144
217 1 1 40.201828 20.789033 7.635026
218 1 1 40.579549 20.830092 7.641386
219 1 1 40.903739 20.640960 7.700805
220 1 1 41.107437 20.783760 7.988059
221 1 1 41.207662 21.122153 8.128934
222 1 1 41.458335 21.191550 8.405966
223 1 1 41.814887 21.220523 8.534150
224 1 1 42.079421 21.487211 8.591591
225 1 1 42.427249 21.481375 8.744501
226 1 1 42.447007 21.356982 9.103020
227 1 1 42.173176 21.098510 9.154097
228 1 1 41.848327 20.943027 9.275332
229 1 1 41.654784 21.001963 9.596996
230 1 1 41.288345 20.933868 9.522933
231 1 1 40.941463 21.007442 9.386332
232 1 1 40.601299 20.977702 9.553079
233 1 1 40.347023 21.231430 9.429118
234 1 1 40.463635 21.486939 9.173155
235 1 1 40.466416 21.712223 8.867150
236 1 1 40.485692 21.481211 8.566050
237 1 1 40.445314 21.710643 8.265833
238 1 1 40.406298 22.071287 8.152634
239 1 1 40.105900 22.235704 7.987928
240 1 1 39.874750 22.499928 8.133377
241 1 1 39.667699 22.666022 8.405301
242 1 1 39.297160 22.582631 8.417402
243 1 1 38.964173 22.412950 8.486163
244 1 1 38.702516 22.649393 8.344633
245 1 1 38.857391 22.994675 8.379194
246 1 1 38.747362 23.316626 8.548430
247 1 1 38.610031 23.644426 8.682919
248 1 1 38.459298 23.891741 8.436920
249 1 1 38.316443 24.197189 8.612115
250 1 1 38.007472 24.167957 8.831393
251 1 1 38.054994 23.896034 9.092544
252 1 1 37.870825 23.574282 9.175956
253 1 1 37.687450 23.286758 9.008315
254 1 1 37.336482 23.144054 8.979040
255 1 1 37.032267 23.197349 9.200429
256 1 1 36.792824 23.443266 9.037358
257 1 1 36.705293 23.780193 9.189733
258 1 1 36.830995 24.045266 9.431261
259 1 1 37.191806 24.149544 9.489062
260 1 1 37.303697 24.502073 9.401861
261 1 1 37.395201 24.570958 9.039533
262 1 1 37.336463 24.746116 8.707464
263 1 1 37.363337 24.600442 8.357526
264 1 1 37.360119 24.221535 8.328906
265 1 1 37.535607 23.933688 8.153555
266 1 1 37.421892 23.579829 8.232628
267 1 1 37.089089 23.469599 8.379229
268 1 1 36.751955 23.593598 8.255276
269 1 1 36.540769 23.904467 8.199052
270 1 1 36.245977 23.911582 7.959371
271 1 1 36.175855 23.782581 7.608883
272 1 1 35.823842 23.875735 7.500215
273 1 1 35.510835 23.925092 7.709955
274 1 1 35.263632 24.164848 7.549306
275 1 1 34.907740 24.292071 7.588741
276 1 1 34.721303 24.082122 7.844793
277 1 1 34.385153 23.907731 7.813312
278 1 1 34.083025 24.136753 7.787485
279 1 1 33.726943 24.267493 7.764841
280 1 1 33.483670 24.559353 7.758823
281 1 1 33.623322 24.888648 7.887129
282 1 1 33.914194 25.129398 7.844325
283 1 1 34.240238 24.964926 7.739232
284 1 1 34.614314 25.012677 7.786001
285 1 1 34.966739 24.976976 7.648443
286 1 1 35.310365 24.880015 7.518369
287 1 1 35.588197 24.683509 7.349268
288 1 1 35.815398 24.471414 7.130646
289 1 1 36.027119 24.477126 6.815144
290 1 1 35.828718 24.282367 6.556097
291 1 1 35.715835 23.919566 6.561875
292 1 1 35.418186 23.841418 6.338945
293 1 1 35.225580 23.606127 6.111039
294 1 1 34.858893 23.557342 6.024085
295 1 1 34.612488 23.752320 6.237787
296 1 1 34.653334 23.783371 6.614307
297 1 1 34.869840 23.723999 6.920901
298 1 1 35.041062 24.056120 6.990030
299 1 1 35.101071 24.396155 6.831364
300 1 1 34.792546 24.528693 6.653471
301 1 1 34.497258 24.411405 6.445029
302 1 1 34.153206 24.539693 6.347200
303 1 1 33.777888 24.588870 6.380640
304 1 1 33.617307 24.249668 6.440274
305 1 1 33.481976 24.014700 6.174049
306 1 1 33.528474 23.677413 6.005303
307 1 1 33.673044 23.742186 5.659898
308 1 1 33.549580 23.578223 5.340097
309 1 1 33.646498 23.791079 5.040599
310 1 1 33.452877 23.790495 4.713626
311 1 1 33.180831 23.946545 4.499060
312 1 1 32.932884 23.771549 4.270370
313 1 1 32.935556 23.477582 4.029587
314 1 1 32.641119 23.237438 4.023426
315 1 1 32.362491 22.979768 4.004115
316 1 1 32.185706 22.999822 3.668340
317 1 1 31.999730 22.824115 3.387377
318 1 1 31.643335 22.802283 3.257354
319 1 1 31.461641 23.027228 3.010805
320 1 1 31.449765 23.062209 2.632605
321 1 1 31.619769 23.296608 2.386525
322 1 1 31.361448 23.549885 2.270242
323 1 1 31.002707 23.674776 2.259927
324 1 1 30.897059 23.904425 2.543653
325 1 1 30.945057 24.281360 2.547636
326 1 1 31.084290 24.631556 2.596392
327 1 1 31.309583 24.937291 2.609410
328 1 1 31.506677 25.051347 2.305197
329 1 1 31.472742 25.045283 1.926764
330 1 1 31.376865 25.099617 1.563094
331 1 1 31.166990 25.017649 1.257098
332 1 1 31.031771 25.008799 0.902081
333 1 1 30.706117 25.180851 0.808550
334 1 1 30.364633 25.214912 0.645368
335 1 1 30.075071 25.422215 0.777955
336 1 1 29.768131 25.573273 0.612519
337 1 1 29.499194 25.746395 0.817706
338 1 1 29.285540 26.012437 0.650452
339 1 1 28.915663 26.091508 0.613867
340 1 1 28.595101 26.268119 0.716085
341 1 1 28.294808 26.117562 0.893726
342 1 1 28.209387 26.215529 1.250805
343 1 1 28.364715 26.282807 1.591021
344 1 1 28.694568 26.470350 1.611606
345 1 1 29.049119 26.437660 1.478847
346 1 1 29.340468 26.306765 1.684717
347 1 1 29.583827 26.036253 1.575174
348 1 1 29.871309 25.789186 1.601856
349 1 1 29.786268 25.433100 1.703693
350 1 1 29.950141 25.094667 1.758550
351 1 1 30.057651 24.849302 2.028064
352 1 1 29.905752 24.500991 2.030532
353 1 1 29.842270 24.155192 2.174730
354 1 1 29.702702 23.884156 2.401578
355 1 1 29.468498 24.007953 2.674016
356 1 1 29.185208 24.237428 2.566834
357 1 1 29.051731 24.557451 2.722299
358 1 1 28.777732 24.808151 2.802756
359 1 1 28.955934 25.132953 2.887297
360 1 1 29.034381 25.461618 2.713441
361 1 1 29.053289 25.402275 2.338580
362 1 1 28.991673 25.148805 2.062253
363 1 1 28.725244 25.271792 1.820820
364 1 1 28.346007 25.257331 1.801580
365 1 1 28.130735 25.485404 2.016151
366 1 1 28.203338 25.821768 2.177359
367 1 1 28.533625 26.009270 2.164967
368 1 1 28.798891 26.234293 2.317934
369 1 1 28.717391 26.449411 2.620394
370 1 1 28.787110 26.467263 2.993517
371 1 1 28.835090 26.521513 3.366551
372 1 1 28.995549 26.295658 3.626633
373 1 1 29.217732 26.489165 3.866611
374 1 1 29.586807 26.502320 3.956113
375 1 1 29.895782 26.706285 3.870482
376 1 1 30.186445 26.904270 4.014416
377 1 1 30.092449 27.095307 4.329169
378 1 1 29.988431 26.898606 4.637210
379 1 1 30.240191 26.775976 4.894074
380 1 1 30.574682 26.821222 5.068625
381 1 1 30.765210 26.595731 5.307901
382 1 1 30.871267 26.276375 5.131369
383 1 1 31.152004 26.063173 5.273258
384 1 1 31.456541 25.846943 5.203251
385 1 1 31.811560 25.721641 5.151662
386 1 1 32.177375 25.655481 5.072907
387 1 1 32.351438 25.992864 5.056332
388 1 1 32.276046 26.362072 5.105332
389 1 1 32.402658 26.718652 5.070396
390 1 1 32.351197 26.955984 4.778121
391 1 1 32.397005 26.951929 4.400914
392 1 1 32.457654 27.167270 4.093749
393 1 1 32.320282 27.087354 3.748579
394 1 1 31.970234 27.020305 3.616781
395 1 1 31.657265 26.815135 3.550784
396 1 1 31.473196 26.577629 3.318169
397 1 1 31.217322 26.412488 3.090887
398 1 1 31.394387 26.349201 2.760671
399 1 1 31.552626 26.658307 2.606353
400 1 1 31.448811 26.896872 2.329390
401 1 1 31.377251 27.269217 2.304113
402 1 1 31.347817 27.623722 2.437753
403 1 1 31.258943 27.971956 2.314325
404 1 1 30.962200 27.938787 2.079285
405 1 1 31.050167 28.048142 1.726151
406 1 1 31.326207 27.971867 1.476384
407 1 1 31.287977 27.816045 1.131916
408 1 1 31.411347 27.795323 0.773098
409 1 1 31.671685 28.026965 0.621552
410 1 1 32.003872 27.854585 0.687405
411 1 1 32.368960 27.959657 0.695807
412 1 1 32.731330 27.958292 0.581413
413 1 1 32.859975 28.312902 0.627270
414 1 1 33.052793 28.590269 0.801305
415 1 1 33.089176 28.952578 0.692638
416 1 1 33.253550 29.092425 0.379869
417 1 1 33.557313 29.319894 0.399518
418 1 1 33.653637 29.575802 0.663399
419 1 1 33.364493 29.817697 0.711173
420 1 1 33.054325 29.973481 0.865855
421 1 1 32.960777 30.321792 0.746154
422 1 1 32.675995 30.563307 0.816647
423 1 1 32.437655 30.584516 0.521445
424 1 1 32.231999 30.420016 0.247500
425 1 1 32.308912 30.047937 0.241040
426 1 1 32.481253 30.193862 43.690482
427 1 1 32.386141 30.266928 43.329906
428 1 1 32.497534 30.555096 43.108658
429 1 1 32.456319 30.607836 42.734600
430 1 1 32.581035 30.860682 42.479816
431 1 1 32.346992 30.936203 42.190125
432 1 1 32.363940 31.058780 41.830837
433 1 1 32.342255 30.833812 41.525356
434 1 1 32.190907 30.755472 41.185714
435 1 1 32.105341 31.064157 40.981284
436 1 1 31.737002 31.051277 40.888760
437 1 1 31.652130 30.683399 40.845604
438 1 1 31.374195 30.584527 40.606069
439 1 1 31.208297 30.895397 40.463810
440 1 1 31.028795 31.010916 40.149431
441 1 1 30.702436 31.150744 40.014013
442 1 1 30.367165 31.260659 40.155124
443 1 1 30.109346 31.001504 40.051358
444 1 1 29.992261 30.644882 39.992095
445 1 1 29.653762 30.479818 39.941380
446 1 1 29.316164 30.400401 40.096690
447 1 1 29.007883 30.181149 40.060759
448 1 1 28.692155 30.332020 40.208925
449 1 1 28.459471 30.628956 40.163235
450 1 1 28.180663 30.735902 40.398243
451 1 1 2.645945 40.804911 22.906938
452 1 1 2.779917 40.790139 22.551645
453 1 1 3.043691 40.697470 22.294281
454 1 1 3.217259 40.454454 22.059298
455 1 1 3.540559 40.384959 21.872088
456 1 1 3.479543 40.371729 21.497252
457 1 1 3.170283 40.300409 21.288275
458 1 1 3.124925 40.024590 21.030853
459 1 1 2.833247 39.983588 20.790764
460 1 1 2.468101 40.066127 20.856005
461 1 1 2.247648 40.362739 20.944443
462 1 1 1.928287 40.561241 20.999262
463 1 1 1.952440 40.935344 20.937103
464 1 1 2.073750 41.226770 20.725549
465 1 1 2.410411 41.388388 20.795831
466 1 1 2.456382 41.754098 20.703401
467 1 1 2.586645 42.006156 20.450620
468 1 1 2.805846 42.199357 20.207671
469 1 1 3.141379 42.377437 20.217934
470 1 1 3.427712 42.196020 20.046175
471 1 1 3.715328 42.008782 20.209330
472 1 1 3.716540 41.783874 20.515622
473 1 1 3.425770 41.909604 20.725491
474 1 1 3.161525 41.793046 20.972450
475 1 1 3.347556 41.597784 21.240153
476 1 1 3.684676 41.425809 21.274429
477 1 1 3.828796 41.172309 21.518083
478 1 1 4.002241 41.116059 21.851479
479 1 1 4.379519 41.119983 21.896712
480 1 1 4.587225 40.819706 21.791393
481 1 1 4.835063 40.576790 21.946210
482 1 1 4.925474 40.422948 22.281707
483 1 1 4.794025 40.357718 22.632230
484 1 1 4.651915 40.503642 22.953027
485 1 1 4.273816 40.500209 22.915219
486 1 1 4.023758 40.319897 23.137387
487 1 1 3.852306 39.985385 23.081656
488 1 1 4.020408 39.798338 22.796779
489 1 1 4.155751 39.498743 22.606186
490 1 1 4.244579 39.137201 22.682321
491 1 1 4.017402 38.843097 22.761654
492 1 1 3.954123 38.544762 22.534955
493 1 1 3.900971 38.357363 22.208679
494 1 1 3.964466 38.006864 22.076321
495 1 1 3.879481 37.779044 21.784301
496 1 1 3.572794 37.685288 21.580455
497 1 1 3.520948 37.309006 21.569323
498 1 1 3.508540 37.153979 21.916040
499 1 1 3.194369 37.141275 22.129429
500 1 1 2.996283 37.396435 22.329566
501 1 1 2.743585 37.393890 22.613357
502 1 1 2.418175 37.398405 22.809541
503 1 1 2.134467 37.174102 22.692930
504 1 1 1.928917 36.858816 22.745309
505 1 1 1.924335 36.659068 22.422076
506 1 1 1.971603 36.898897 22.131133
507 1 1 1.819012 37.101257 21.847996
508 1 1 1.668188 37.024921 21.507666
509 1 1 1.397596 37.024133 21.240872
510 1 1 1.085714 37.232367 21.179480
511 1 1 0.739814 37.094404 21.255106
512 1 1 0.561344 36.775351 21.358806
513 1 1 0.512246 36.452287 21.552763
514 1 1 0.431882 36.085410 21.610578
515 1 1 0.703066 35.825039 21.555205
516 1 1 1.081049 35.833847 21.517107
517 1 1 1.289108 35.676289 21.793308
518 1 1 1.581072 35.548719 22.000390
519 1 1 1.826299 35.692987 22.252284
520 1 1 2.112459 35.800459 22.478032
521 1 1 1.992929 36.090250 22.692819
522 1 1 1.933298 36.226278 23.042591
523 1 1 1.658459 36.155801 23.295369
524 1 1 1.406619 35.881117 23.221039
525 1 1 1.170558 35.677245 23.003987
526 1 1 0.953474 35.570801 22.710825
527 1 1 0.620601 35.402346 22.638584
528 1 1 0.451869 35.179252 22.381372
529 1 1 0.513919 34.807577 22.430444
530 1 1 0.789058 34.790333 22.691980
531 1 1 0.820621 34.963558 23.028724
532 1 1 0.663651 34.962607 23.374787
533 1 1 0.877227 35.202635 23.577697
534 1 1 0.690015 35.245838 23.905546
535 1 1 0.771495 35.241698 24.276685
536 1 1 0.641146 35.092982 24.601173
537 1 1 0.696240 34.869455 24.903498
538 1 1 0.814276 34.793003 25.256517
539 1 1 0.586308 34.736314 25.555209
540 1 1 0.329181 34.910478 25.774189
541 1 1 0.149496 35.104059 26.047392
542 1 1 0.163813 35.437426 26.229219
543 1 1 43.686389 35.706512 26.363170
544 1 1 43.576096 35.382654 26.528552
545 1 1 43.384318 35.063737 26.451654
546 1 1 43.071335 34.868150 26.361168
547 1 1 43.003042 34.819356 25.990554
548 1 1 43.040376 34.567744 25.708247
549 1 1 42.858193 34.318124 25.487114
550 1 1 42.498028 34.199525 25.462311
551 1 1 42.254897 34.014538 25.236331
552 1 1 41.907068 34.005152 25.083599
553 1 1 41.627619 33.765815 25.178604
554 1 1 41.474981 33.529194 25.433775
555 1 1 41.217940 33.257829 25.365288
556 1 1 41.107088 32.997174 25.111968
557 1 1 41.126969 33.104312 24.747926
558 1 1 41.222346 33.114219 24.380224
559 1 1 41.458248 33.058981 24.087480
560 1 1 41.834795 33.106534 24.106217
561 1 1 41.993805 32.786274 24.234863
562 1 1 42.162322 32.448875 24.281379
563 1 1 42.062424 32.139737 24.478492
564 1 1 41.881501 31.812682 24.409917
565 1 1 41.825595 31.494336 24.210092
566 1 1 41.762165 31.407736 23.845569
567 1 1 41.461085 31.195177 23.752998
568 1 1 41.294791 30.892686 23.594110
569 1 1 41.551130 30.638780 23.474855
570 1 1 41.899712 30.616221 23.624461
571 1 1 42.248188 30.468817 23.659626
572 1 1 42.419395 30.501567 23.997289
573 1 1 42.340080 30.730544 24.289998
574 1 1 42.473184 31.086461 24.292550
575 1 1 42.439181 31.464148 24.268132
576 1 1 42.440333 31.674853 24.584363
577 1 1 42.370889 31.483560 24.905274
578 1 1 42.668360 31.461604 25.140709
579 1 1 42.946504 31.228403 25.253194
580 1 1 43.067274 30.884598 25.360955
581 1 1 43.183790 30.786579 25.709117
582 1 1 42.892708 30.770024 25.952832
583 1 1 42.845675 31.090205 26.152010
584 1 1 42.572354 31.300038 26.312215
585 1 1 42.427867 31.544808 26.564428
586 1 1 42.187547 31.790677 26.726275
587 1 1 41.900082 31.624538 26.911104
588 1 1 42.053451 31.452009 27.212951
589 1 1 41.996053 31.690660 27.503040
590 1 1 41.665004 31.876844 27.514950
591 1 1 41.551905 32.236126 27.464704
592 1 1 41.592102 32.548360 27.251879
593 1 1 41.321324 32.813765 27.226590
594 1 1 41.234576 33.000185 27.546157
595 1 1 41.265616 33.368962 27.632409
596 1 1 41.106639 33.689071 27.503347
597 1 1 41.168328 33.822297 27.152854
598 1 1 41.047516 34.170510 27.060375
599 1 1 40.761437 34.269616 27.290020
600 1 1 40.771070 34.427422 27.635570
601 1 1 40.837280 34.197610 27.930871
602 1 1 40.717476 34.141515 28.287101
603 1 1 40.787652 34.000799 28.633041
604 1 1 40.639914 33.968314 28.981636
605 1 1 40.807656 33.780993 29.266546
606 1 1 40.878167 33.724433 29.635638
607 1 1 41.113898 33.972068 29.801494
608 1 1 41.186090 34.332663 29.705788
609 1 1 41.320435 34.618438 29.917174
610 1 1 41.672369 34.760330 29.937403
611 1 1 42.030477 34.800372 30.058047
612 1 1 42.102212 35.172192 30.026363
613 1 1 41.958735 35.456958 29.819667
614 1 1 41.934378 35.457469 29.440449
615 1 1 42.025721 35.245432 29.138627
616 1 1 42.363199 35.235555 28.964239
617 1 1 42.473223 35.581622 28.852292
618 1 1 42.349796 35.924097 28.743310
619 1 1 42.162564 36.085932 28.454947
620 1 1 42.272250 36.416878 28.303805
621 1 1 42.480482 36.728285 28.240049
622 1 1 42.711747 36.657652 27.946914
623 1 1 42.706118 36.778670 27.586744
624 1 1 42.877750 36.942030 27.289665
625 1 1 42.726678 37.087533 26.972796
626 1 1 42.665225 37.007218 26.606500
627 1 1 42.408449 36.812547 26.405082
628 1 1 42.093852 36.667701 26.248722
629 1 1 41.776236 36.540122 26.083666
630 1 1 41.466656 36.727403 26.199798
631 1 1 41.120583 36.877105 26.152655
632 1 1 40.744105 36.825588 26.149513
633 1 1 40.456902 36.684661 26.354584
634 1 1 40.170021 36.651044 26.107665
635 1 1 40.255413 36.399393 25.836040
636 1 1 40.040441 36.218136 25.580438
637 1 1 39.772533 35.948839 25.590670
638 1 1 39.446751 35.851711 25.420870
639 1 1 39.116271 35.756397 25.259319
640 1 1 38.942612 35.418403 25.260991
641 1 1 38.797133 35.304175 24.929045
642 1 1 39.024135 35.131093 24.678220
643 1 1 38.906900 34.824502 24.486757
644 1 1 38.590720 34.700495 24.657203
645 1 1 38.338290 34.443100 24.537088
646 1 1 38.057371 34.275744 24.730676
647 1 1 38.020355 34.254035 25.108245
648 1 1 38.255776 34.000465 25.265341
649 1 1 38.521422 33.897200 25.014007
650 1 1 38.884878 33.830372 25.102515
651 1 1 39.177252 34.035422 24.972621
652 1 1 39.109839 34.074028 24.600646
653 1 1 39.323866 33.999460 24.295634
654 1 1 39.353750 34.263535 24.024026
655 1 1 39.292419 34.632909 23.959206
656 1 1 39.318623 34.991888 23.837358
657 1 1 39.664031 35.113766 23.736169
658 1 1 39.763179 35.330965 23.440544
659 1 1 39.656035 35.464265 23.101205
660 1 1 39.376055 35.658662 22.933214
661 1 1 39.217903 35.929169 22.718240
662 1 1 38.950886 36.060585 22.481953
663 1 1 38.576602 36.093340 22.425039
664 1 1 38.361487 35.940716 22.151486
665 1 1 38.529567 35.900875 21.813016
666 1 1 38.750639 35.892057 21.504068
667 1 1 38.774715 35.889016 21.124843
668 1 1 38.955819 36.062340 20.839257
669 1 1 38.887831 36.213005 20.497090
670 1 1 38.922807 36.197391 20.119026
671 1 1 39.045597 35.956931 19.851627
672 1 1 39.039299 35.758445 19.527646
673 1 1 39.400683 35.670419 19.449843
674 1 1 39.768228 35.662941 19.353644
675 1 1 39.992009 35.905533 19.165307
676 1 1 40.215028 35.733139 18.910468
677 1 1 40.571184 35.851686 18.969629
678 1 1 40.723189 36.082651 19.230300
679 1 1 40.591730 36.421058 19.342547
680 1 1 40.762159 36.706740 19.158863
681 1 1 40.511096 36.991217 19.137881
682 1 1 40.582332 37.178625 18.815074
683 1 1 40.720522 37.529994 18.858008
684 1 1 40.583101 37.882010 18.898012
685 1 1 40.826917 38.055300 19.132372
686 1 1 41.194960 37.983967 19.070277
687 1 1 41.571016 38.037377 19.081647
688 1 1 41.885918 37.866466 18.955051
689 1 1 42.188916 37.854708 19.184079
690 1 1 42.128307 37.989205 19.534275
691 1 1 42.203841 38.310275 19.722977
692 1 1 42.522408 38.470356 19.591489
693 1 1 42.864446 38.390815 19.736689
694 1 1 43.095117 38.105220 19.834805
695 1 1 43.431399 38.246727 19.941061
696 1 1 43.626043 38.484774 19.717795
697 1 1 0.113785 38.705639 19.909274
698 1 1 0.188174 38.787253 19.545673
699 1 1 0.487608 38.966056 19.394780
700 1 1 0.493913 39.343553 19.351696
701 1 1 0.485934 39.574133 19.653639
702 1 1 0.407151 39.709859 19.999719
703 1 1 0.654551 39.607350 20.269320
704 1 1 0.915596 39.593856 20.545134
705 1 1 1.111154 39.268792 20.522974
706 1 1 1.485736 39.205380 20.514781
707 1 1 1.666474 38.877903 20.581805
708 1 1 1.834590 38.609400 20.371941
709 1 1 1.899563 38.235666 20.394345
710 1 1 1.830675 37.887534 20.258484
711 1 1 1.641164 37.614495 20.074268
712 1 1 1.334247 37.647304 19.852626
713 1 1 1.156034 37.360729 19.677941
714 1 1 0.958548 37.480478 19.376181
715 1 1 1.089883 37.634401 19.054530
716 1 1 1.449609 37.547681 18.968062
717 1 1 1.731094 37.331672 18.832024
718 1 1 2.032384 37.100189 18.825703
719 1 1 2.341607 37.004510 18.626637
720 1 1 2.374680 36.632397 18.557081
721 1 1 2.306885 36.367900 18.292799
722 1 1 2.590815 36.317372 18.045351
723 1 1 2.905422 36.442956 17.873157
724 1 1 3.092511 36.309602 17.570477
725 1 1 3.262761 36.439340 17.256498
726 1 1 3.184372 36.675872 16.969605
727 1 1 2.817206 36.644867 16.876717
728 1 1 2.623699 36.959975 16.964248
729 1 1 2.263319 36.950659 16.844082
730 1 1 2.056142 36.880637 16.533318
731 1 1 2.037692 37.173900 16.292369
732 1 1 1.946499 37.521128 16.167801
733 1 1 1.881391 37.831204 15.958007
734 1 1 1.785943 38.159798 15.792733
735 1 1 1.949862 38.206653 15.453123
736 1 1 2.101690 37.900988 15.286038
737 1 1 1.977480 37.791628 14.943967
738 1 1 1.900004 38.108886 14.749686
739 1 1 1.830677 38.431747 14.561658
740 1 1 1.532984 38.662073 14.509418
741 1 1 1.156898 38.615601 14.537697
742 1 1 0.958063 38.293297 14.506317
743 1 1 0.635077 38.206537 14.325893
744 1 1 0.558844 37.844699 14.413426
745 1 1 0.301599 37.621778 14.582338
746 1 1 0.010882 37.551867 14.816851
747 1 1 0.149623 37.521620 15.169323
748 1 1 0.517809 37.429744 15.149369
749 1 1 0.863411 37.543177 15.039405
750 1 1 1.138383 37.804440 15.016350
751 1 1 1.067152 38.152531 15.151106
752 1 1 0.800743 38.413508 15.078189
753 1 1 0.647436 38.493542 15.416556
754 1 1 0.272945 38.547978 15.451088
755 1 1 43.652623 38.606966 15.448548
756 1 1 43.469558 38.325444 15.270693
757 1 1 43.327379 38.034350 15.072074
758 1 1 43.146805 38.082193 14.741160
759 1 1 43.048929 37.736369 14.617766
760 1 1 42.854710 37.486005 14.408013
761 1 1 42.609674 37.274423 14.606987
762 1 1 42.410381 36.968079 14.711085
763 1 1 42.395957 36.619676 14.560066
764 1 1 42.219174 36.651717 14.225221
765 1 1 41.847313 36.603904 14.287136
766 1 1 41.534896 36.598382 14.503388
767 1 1 41.198965 36.515037 14.660246
768 1 1 40.829918 36.484682 14.574908
769 1 1 40.659357 36.314793 14.868926
770 1 1 40.651917 36.403184 15.238428
771 1 1 40.549567 36.368982 15.602783
772 1 1 40.310240 36.079726 15.661549
773 1 1 40.046173 35.834766 15.782641
774 1 1 39.794160 35.986123 16.023433
775 1 1 39.448650 36.023874 15.869818
776 1 1 39.442967 35.899756 15.510705
777 1 1 39.491360 35.524540 15.475054
778 1 1 39.633508 35.187594 15.371800
779 1 1 39.695641 34.846569 15.527496
780 1 1 39.549784 34.496094 15.544626
781 1 1 39.445745 34.211580 15.315218
782 1 1 39.361242 33.890861 15.500687
783 1 1 39.067541 33.982727 15.723622
784 1 1 39.019875 33.750923 16.020935
785 1 1 38.980280 33.591365 16.363533
786 1 1 39.260158 33.356487 16.467939
787 1 1 39.493957 33.113447 16.643068
788 1 1 39.834198 32.990215 16.527095
789 1 1 39.929534 32.622380 16.530009
790 1 1 40.124652 32.397553 16.293828
791 1 1 40.422933 32.450786 16.064492
792 1 1 40.592017 32.324297 15.748564
793 1 1 40.898198 32.390200 15.533366
794 1 1 40.894577 32.176573 15.219120
795 1 1 41.011590 32.205231 14.858722
796 1 1 41.117307 32.148816 14.498109
797 1 1 40.870489 31.990492 14.256419
798 1 1 41.042776 31.735767 14.033187
799 1 1 41.366398 31.834066 13.859965
800 1 1 41.717640 31.958707 13.934087
801 1 1 42.006649 31.720386 13.870235