LAMMPS data file for polymer system

27000 atoms
26940 bonds

1 atom types
1 bond types

0.0 43.75506318037897 xlo xhi
0.0 43.75506318037897 ylo yhi
0.0 43.75506318037897 zlo zhi

Masses

1 5.65487

Atoms

1 1 1 39.938519 35.000396 33.922134
2 1 1 40.226686 34.752742 33.916906
3 1 1 40.290880 34.639342 33.559947
4 1 1 40.595189 34.538089 33.356124
5 1 1 40.966644 34.578961 33.287198
6 1 1 41.340139 34.509450 33.295525
7 1 1 41.572184 34.472571 33.594181
8 1 1 41.797813 34.358351 33.877810
9 1 1 41.881961 34.613038 34.146982
10 1 1 42.223155 34.686515 34.297273
11 1 1 42.453374 34.871323 34.058014
12 1 1 42.659158 35.145313 33.893750
13 1 1 42.740932 35.252332 33.538419
14 1 1 42.810422 35.042140 33.229566
15 1 1 42.939016 34.699747 33.126460
16 1 1 43.302452 34.675042 33.018275
17 1 1 43.500376 34.596189 33.332931
18 1 1 43.504258 34.264098 33.517594
19 1 1 43.238662 34.043272 33.676007
20 1 1 43.325279 33.927548 34.027440
21 1 1 43.262399 33.962926 34.400528
22 1 1 43.177537 34.248750 34.636119
23 1 1 43.292358 34.300055 34.994705
24 1 1 43.225257 33.998551 35.216049
25 1 1 42.924523 33.871083 35.410241
26 1 1 42.849450 33.502176 35.461931
27 1 1 42.865579 33.155007 35.615597
28 1 1 42.555469 33.076719 35.820786
29 1 1 42.686170 32.913216 36.137936
30 1 1 42.628027 32.919063 36.513416
31 1 1 42.727165 32.984172 36.874431
32 1 1 42.526428 32.859324 37.171950
33 1 1 42.157560 32.822225 37.255379
34 1 1 42.053157 32.617998 37.558350
35 1 1 41.959857 32.794166 37.881862
36 1 1 42.166436 32.928010 38.171364
37 1 1 42.443402 33.062988 38.393784
38 1 1 42.448680 33.424913 38.509466
39 1 1 42.668291 33.639931 38.732935
40 1 1 43.038505 33.576062 38.675821
41 1 1 43.310651 33.808727 38.803115
42 1 1 43.409682 34.066999 39.063669
43 1 1 43.532422 34.426006 39.042484
44 1 1 43.513583 34.799198 38.973398
45 1 1 43.709080 35.118911 39.036363
46 1 1 43.506229 35.421103 38.927131
47 1 1 43.348405 35.677020 39.159506
48 1 1 43.452314 35.921278 39.431427
49 1 1 43.668644 36.045786 39.717956
50 1 1 43.751305 36.409062 39.643139
51 1 1 0.208786 36.669180 39.465477
52 1 1 0.475569 36.424044 39.580087
53 1 1 0.469709 36.385765 39.958109
54 1 1 0.405570 36.562865 40.288141
55 1 1 0.294564 36.915167 40.377369
56 1 1 0.068969 37.136820 40.588027
57 1 1 43.495139 37.241547 40.746965
58 1 1 43.251911 37.524760 40.817893
59 1 1 42.888150 37.456949 40.904380
60 1 1 42.622918 37.727478 40.874954
61 1 1 42.744271 38.085299 40.915423
62 1 1 42.983830 38.272291 41.143558
63 1 1 43.349770 38.185314 41.089493
64 1 1 43.706273 38.156807 40.961069
65 1 1 0.309420 38.169731 41.087237
66 1 1 0.190861 38.114407 40.730469
67 1 1 0.418739 37.930426 40.488349
68 1 1 0.628079 37.662515 40.658057
69 1 1 0.755961 37.370551 40.451168
70 1 1 1.029151 37.159932 40.610561
71 1 1 1.329814 37.051679 40.816190
72 1 1 1.507901 37.019072 41.150288
73 1 1 1.362071 37.040643 41.500529
74 1 1 1.356240 37.362760 41.702039
75 1 1 1.263927 37.704015 41.562672
76 1 1 1.405191 38.044377 41.469946
77 1 1 1.296847 38.280557 41.747219
78 1 1 1.446266 38.616921 41.841736
79 1 1 1.362011 38.987456 41.843951
80 1 1 1.300178 39.327658 41.686347
81 1 1 0.925964 39.390495 41.706731
82 1 1 0.646684 39.313981 41.952798
83 1 1 0.359500 39.555996 42.010707
84 1 1 0.059883 39.735640 42.160234
85 1 1 43.751821 39.887584 41.817702
86 1 1 43.660914 40.052010 41.487399
87 1 1 43.680191 39.782643 41.220060
88 1 1 0.258239 39.628516 41.121665
89 1 1 0.138302 39.951563 41.281838
90 1 1 0.329811 40.185126 41.512430
91 1 1 0.663077 40.308827 41.378147
92 1 1 0.627513 40.474981 41.038253
93 1 1 0.666905 40.736837 40.765710
94 1 1 0.903909 40.906203 40.521693
95 1 1 1.100122 41.230438 40.493909
96 1 1 1.368109 41.441167 40.326050
97 1 1 1.454752 41.742661 40.111587
98 1 1 1.804562 41.862093 40.199727
99 1 1 2.126692 41.879359 40.400562
100 1 1 2.486369 41.803961 40.497244
101 1 1 2.854743 41.889471 40.534513
102 1 1 3.192230 41.802422 40.685923
103 1 1 3.218104 41.687431 41.047182
104 1 1 3.076000 41.339639 41.104165
105 1 1 3.294637 41.051145 41.219791
106 1 1 3.077769 40.774500 41.364139
107 1 1 2.737258 40.820218 41.526502
108 1 1 2.390871 40.742908 41.662294
109 1 1 2.033411 40.749067 41.533514
110 1 1 1.685951 40.876544 41.447369
111 1 1 1.685145 40.902286 41.068243
112 1 1 1.590626 40.812801 40.711229
113 1 1 1.478997 40.449891 40.726567
114 1 1 1.697807 40.144376 40.782983
115 1 1 2.034429 40.159411 40.958651
116 1 1 2.276572 39.919885 40.790144
117 1 1 2.221717 39.888017 40.415477
118 1 1 1.961842 39.934397 40.142139
119 1 1 1.721501 40.083237 39.888204
120 1 1 1.342274 40.066162 39.905404
121 1 1 1.078271 39.854040 40.077758
122 1 1 0.768938 39.794824 40.290378
123 1 1 0.411991 39.883720 40.385698
124 1 1 0.104391 39.670975 40.452947
125 1 1 43.611387 39.904222 40.621644
126 1 1 43.443631 40.123532 40.360568
127 1 1 43.283886 40.465464 40.404891
128 1 1 42.908019 40.423926 40.367489
129 1 1 42.665554 40.600053 40.601134
130 1 1 42.616160 40.643713 40.975372
131 1 1 42.445185 40.516522 41.289999
132 1 1 42.266754 40.337458 41.573721
133 1 1 41.947413 40.199233 41.421028
134 1 1 41.582412 40.267405 41.340240
135 1 1 41.521437 40.624921 41.226818
136 1 1 41.326411 40.951031 41.230974
137 1 1 41.052674 41.147986 41.406121
138 1 1 41.109702 41.490345 41.560841
139 1 1 41.256298 41.824354 41.667364
140 1 1 41.156045 41.957143 42.009002
141 1 1 41.285242 41.977596 42.365779
142 1 1 41.583624 41.927107 42.595603
143 1 1 41.600307 41.691647 42.893395
144 1 1 41.856184 41.446444 43.030519
145 1 1 42.096468 41.536698 43.310730
146 1 1 42.408847 41.742112 43.242726
147 1 1 42.570877 42.051029 43.092006
148 1 1 42.715397 42.076721 42.741501
149 1 1 42.833929 42.089774 42.380696
150 1 1 43.060807 42.237665 42.114135
151 1 1 43.302656 42.512837 42.013194
152 1 1 43.609010 42.334279 41.876576
153 1 1 0.018031 42.102461 42.129038
154 1 1 0.170958 41.755709 42.101182
155 1 1 0.027866 41.517989 42.360824
156 1 1 0.118468 41.151878 42.314413
157 1 1 0.117721 40.880782 42.048130
158 1 1 0.455012 40.707519 42.023340
159 1 1 0.789098 40.540417 42.093077
160 1 1 0.951292 40.741665 42.371632
161 1 1 1.275637 40.614895 42.523716
162 1 1 1.499231 40.921200 42.547864
163 1 1 1.696773 40.881948 42.870101
164 1 1 1.528803 41.068869 43.155138
165 1 1 1.339884 40.846032 43.398147
166 1 1 1.412905 40.816909 0.014863
167 1 1 1.270636 40.936433 0.346335
168 1 1 1.046632 41.213224 0.479033
169 1 1 1.007381 41.427862 0.790144
170 1 1 0.959655 41.714358 1.035179
171 1 1 1.029111 41.745439 1.407483
172 1 1 1.100629 41.710892 1.779090
173 1 1 1.372585 41.856498 2.000988
174 1 1 1.675415 42.046938 1.872822
175 1 1 1.601964 42.326282 1.625897
176 1 1 1.853837 42.477441 1.384835
177 1 1 2.116479 42.312274 1.165428
178 1 1 2.404923 42.096198 1.285892
179 1 1 2.600830 41.772652 1.322476
180 1 1 2.794117 41.815337 1.646850
181 1 1 3.158657 41.782426 1.544736
182 1 1 3.423688 42.039756 1.455630
183 1 1 3.772171 41.942365 1.571711
184 1 1 4.007618 42.100994 1.319122
185 1 1 4.373510 42.181264 1.382996
186 1 1 4.750290 42.172805 1.334364
187 1 1 5.013221 42.185923 1.060329
188 1 1 5.233477 42.057815 0.778415
189 1 1 5.368776 41.788102 0.547440
190 1 1 5.563777 41.580697 0.295731
191 1 1 5.691369 41.455410 43.715498
192 1 1 5.454226 41.706217 43.556567
193 1 1 5.394135 42.000195 43.323402
194 1 1 5.674322 42.019683 43.067442
195 1 1 5.886845 41.877788 42.786195
196 1 1 6.012110 42.096593 42.501884
197 1 1 5.762766 42.380078 42.458711
198 1 1 5.698200 42.753179 42.490753
199 1 1 5.469297 43.056064 42.474496
200 1 1 5.165810 43.015182 42.699494
201 1 1 4.902475 42.872063 42.933099
202 1 1 4.794381 42.823209 43.294110
203 1 1 5.041291 43.006643 43.517241
204 1 1 5.250332 43.069699 0.073186
205 1 1 4.900929 42.920779 0.085005
206 1 1 4.762999 42.587111 0.203500
207 1 1 4.479492 42.363417 0.085242
208 1 1 4.649170 42.054504 43.698243
209 1 1 4.756936 41.749313 0.142290
210 1 1 4.450769 41.547239 0.043153
211 1 1 4.132406 41.518476 0.248622
212 1 1 4.052285 41.634897 43.650943
213 1 1 4.368504 41.441411 43.734424
214 1 1 4.702159 41.470292 43.554869
215 1 1 4.945959 41.340328 43.293965
216 1 1 5.025875 40.969693 43.319335
217 1 1 4.835787 40.690046 43.145945
218 1 1 4.574658 40.440357 43.028186
219 1 1 4.400606 40.251203 43.308055
220 1 1 4.417880 40.243436 43.687583
221 1 1 4.705772 40.304927 0.172805
222 1 1 4.964092 40.358220 0.446358
223 1 1 5.311207 40.511675 0.465409
224 1 1 5.634716 40.361252 0.596232
225 1 1 5.968968 40.537478 0.636477
226 1 1 6.282681 40.625058 0.832217
227 1 1 6.543681 40.897026 0.784131
228 1 1 6.788361 40.870096 0.494637
229 1 1 7.008214 41.017958 0.222237
230 1 1 7.219589 40.832519 43.721698
231 1 1 7.180258 40.872103 43.345817
232 1 1 7.241039 40.637190 43.053377
233 1 1 7.020432 40.445098 42.810821
234 1 1 6.734751 40.282949 42.619786
235 1 1 6.598458 40.520430 42.356296
236 1 1 6.806699 40.759919 42.147297
237 1 1 6.775520 41.136157 42.104018
238 1 1 6.674602 41.315406 42.423526
239 1 1 6.797193 41.392980 42.774744
240 1 1 7.145721 41.522604 42.853013
241 1 1 7.501213 41.579562 42.731436
242 1 1 7.849049 41.426646 42.726256
243 1 1 8.213609 41.454869 42.622818
244 1 1 8.431111 41.143410 42.613533
245 1 1 8.806980 41.149897 42.558035
246 1 1 9.130433 41.253370 42.387531
247 1 1 9.437467 41.338667 42.180518
248 1 1 9.732704 41.261642 41.954018
249 1 1 9.796636 41.133267 41.602120
250 1 1 10.097221 41.268396 41.412942
251 1 1 10.120898 41.593629 41.217845
252 1 1 10.291911 41.884938 41.043795
253 1 1 10.611787 42.079298 41.109402
254 1 1 10.950121 42.252284 41.106952
255 1 1 11.135823 42.338335 41.427123
256 1 1 11.034673 42.454373 41.774548
257 1 1 10.875044 42.797720 41.806664
258 1 1 10.712648 42.852225 42.145864
259 1 1 10.378092 43.030803 42.169980
260 1 1 10.188284 43.291278 41.968671
261 1 1 10.196035 43.522807 41.667449
262 1 1 10.384880 43.689980 41.383212
263 1 1 10.507482 0.104102 41.700616
264 1 1 10.245085 0.349229 41.576277
265 1 1 9.913236 0.534345 41.573395
266 1 1 9.971930 0.904226 41.509026
267 1 1 10.035134 1.186899 41.263057
268 1 1 10.334876 1.420274 41.272586
269 1 1 10.236587 1.771483 41.165855
270 1 1 10.400394 2.111302 41.120138
271 1 1 10.333534 2.485271 41.111348
272 1 1 9.968036 2.581690 41.072428
273 1 1 9.679909 2.441894 41.276977
274 1 1 9.359576 2.249980 41.206578
275 1 1 9.295734 1.875428 41.200683
276 1 1 9.539834 1.661710 41.002844
277 1 1 9.485963 1.349037 40.793719
278 1 1 9.371220 1.259974 40.442575
279 1 1 9.051691 1.211206 40.242768
280 1 1 9.013531 1.531704 40.042206
281 1 1 9.077787 1.441160 39.678788
282 1 1 9.181983 1.758867 39.498218
283 1 1 9.237740 2.094370 39.667715
284 1 1 9.172068 2.328942 39.959371
285 1 1 9.357225 2.651878 39.883023
286 1 1 9.157583 2.910629 39.689139
287 1 1 8.927314 3.007756 39.402883
288 1 1 9.005944 3.006078 39.031111
289 1 1 8.806635 3.233476 38.800968
290 1 1 8.965629 3.300828 38.462465
291 1 1 9.325827 3.307253 38.341570
292 1 1 9.523969 3.136720 38.065783
293 1 1 9.569951 3.311745 37.731639
294 1 1 9.882092 3.389730 37.529436
295 1 1 10.200020 3.255755 37.370149
296 1 1 10.414408 2.956329 37.276437
297 1 1 10.430170 2.671252 37.527201
298 1 1 10.620322 2.343174 37.502561
299 1 1 10.571141 1.967117 37.526265
300 1 1 10.242124 1.795436 37.444575
301 1 1 9.874860 1.754186 37.532978
302 1 1 9.554905 1.936851 37.439908
303 1 1 9.470927 2.206395 37.694258
304 1 1 9.255787 2.311118 37.989467
305 1 1 8.979769 2.570040 38.023716
306 1 1 8.810356 2.909763 38.006768
307 1 1 8.835286 3.112520 37.686349
308 1 1 8.704959 3.443975 37.553866
309 1 1 8.378825 3.572405 37.700640
310 1 1 8.123991 3.664668 37.434281
311 1 1 7.997021 4.001397 37.312245
312 1 1 8.005114 4.318276 37.102669
313 1 1 8.281193 4.343899 36.842815
314 1 1 8.347783 4.054043 36.606279
315 1 1 8.563574 4.000260 36.298153
316 1 1 8.432977 4.131234 35.966204
317 1 1 8.268683 4.408296 35.764600
318 1 1 8.368751 4.702888 35.546420
319 1 1 8.396311 5.062799 35.665181
320 1 1 8.337585 5.297968 35.372526
321 1 1 8.019679 5.415614 35.200786
322 1 1 7.750675 5.614738 35.380749
323 1 1 7.785505 5.862281 35.666947
324 1 1 7.608517 6.190583 35.594193
325 1 1 7.523977 6.337038 35.253894
326 1 1 7.366926 6.278145 34.912915
327 1 1 7.217836 6.180923 34.577177
328 1 1 7.345565 6.359140 34.266815
329 1 1 7.614896 6.382605 33.999775
330 1 1 7.497681 6.511035 33.661890
331 1 1 7.438190 6.283240 33.363610
332 1 1 7.339036 6.270821 32.996985
333 1 1 7.415079 6.099029 32.666675
334 1 1 7.358750 5.854046 32.381700
335 1 1 7.122080 5.728582 32.112171
336 1 1 6.764255 5.732228 32.240031
337 1 1 6.721064 5.860132 32.595242
338 1 1 6.700473 5.557203 32.823737
339 1 1 6.703164 5.179890 32.778708
340 1 1 6.484177 4.959174 32.560238
341 1 1 6.357096 5.187479 32.284325
342 1 1 6.450522 5.058015 31.939491
343 1 1 6.772654 5.229402 31.833389
344 1 1 7.055588 4.982505 31.775164
345 1 1 7.282128 5.080102 31.486106
346 1 1 7.387436 5.233631 31.154837
347 1 1 7.098212 5.312794 30.921422
348 1 1 6.968053 5.290396 30.565112
349 1 1 6.696809 5.126144 30.355712
350 1 1 6.581982 5.374412 30.091935
351 1 1 6.511759 5.165325 29.782498
352 1 1 6.653477 4.894861 29.556301
353 1 1 6.715135 4.523009 29.508092
354 1 1 6.640860 4.320569 29.820984
355 1 1 6.588586 3.944796 29.799481
356 1 1 6.313433 3.797710 29.582555
357 1 1 5.940529 3.868473 29.564233
358 1 1 5.732198 3.749978 29.269349
359 1 1 5.393497 3.691199 29.107400
360 1 1 5.057434 3.547593 29.211508
361 1 1 4.826434 3.814660 29.351916
362 1 1 4.695271 4.163056 29.428179
363 1 1 4.561110 4.469582 29.248059
364 1 1 4.783903 4.701618 29.045766
365 1 1 4.875049 4.742829 28.679168
366 1 1 5.093935 4.766796 28.369467
367 1 1 5.450380 4.895328 28.340726
368 1 1 5.639333 5.140747 28.560877
369 1 1 5.799309 5.445271 28.722349
370 1 1 6.150444 5.398567 28.859909
371 1 1 6.287491 5.059940 28.755269
372 1 1 6.272228 5.006287 28.379385
373 1 1 6.488787 5.012073 28.067186
374 1 1 6.347148 5.078089 27.720804
375 1 1 6.044193 5.230521 27.549389
376 1 1 5.747476 5.347532 27.342828
377 1 1 5.715989 5.165384 27.010818
378 1 1 5.350811 5.121081 26.915515
379 1 1 5.152980 5.399253 27.082499
380 1 1 5.220055 5.773110 27.071016
381 1 1 5.554260 5.894454 26.936917
382 1 1 5.879987 6.026179 27.081659
383 1 1 6.112566 5.886383 27.347674
384 1 1 6.426577 5.814098 27.549100
385 1 1 6.609083 5.627968 27.825590
386 1 1 6.825393 5.509290 28.114598
387 1 1 7.121681 5.747097 28.122438
388 1 1 7.486233 5.707052 28.221928
389 1 1 7.732057 5.927581 28.033946
390 1 1 7.911600 6.214111 27.860555
391 1 1 7.880925 6.203281 27.481950
392 1 1 7.710333 5.992187 27.215984
393 1 1 7.591221 5.668947 27.055583
394 1 1 7.541735 5.418640 26.773985
395 1 1 7.805538 5.459422 26.503532
396 1 1 8.184949 5.474657 26.518219
397 1 1 8.304542 5.568686 26.866437
398 1 1 8.587640 5.514807 27.114132
399 1 1 8.764631 5.718709 27.381523
400 1 1 8.553804 6.026581 27.453405
401 1 1 8.538957 6.244035 27.142129
402 1 1 8.756975 6.466208 26.924166
403 1 1 8.827082 6.798155 27.095329
404 1 1 8.951501 7.026367 26.818131
405 1 1 8.866935 6.988497 26.449601
406 1 1 8.824396 6.827240 26.108153
407 1 1 9.019149 6.724684 25.798389
408 1 1 9.148113 6.862738 25.468678
409 1 1 9.462017 6.924308 25.263560
410 1 1 9.602345 7.023068 24.924510
411 1 1 9.837547 7.224650 24.704409
412 1 1 9.950222 7.542821 24.529847
413 1 1 10.222175 7.722675 24.334670
414 1 1 10.551132 7.747417 24.523284
415 1 1 10.715729 8.088411 24.491182
416 1 1 10.926283 8.399358 24.549311
417 1 1 10.855890 8.772687 24.540931
418 1 1 11.066394 9.083418 24.481479
419 1 1 10.980847 9.453481 24.469857
420 1 1 10.618085 9.508355 24.568814
421 1 1 10.264132 9.574287 24.447280
422 1 1 10.158328 9.921271 24.560450
423 1 1 10.164139 10.274175 24.419647
424 1 1 10.017548 10.271692 24.069069
425 1 1 9.700730 10.458983 23.974473
426 1 1 9.525395 10.567267 23.655205
427 1 1 9.615092 10.321449 23.379654
428 1 1 9.861206 10.119619 23.172068
429 1 1 10.003376 10.370533 22.924622
430 1 1 10.378643 10.430300 22.922879
431 1 1 10.723503 10.271290 22.909187
432 1 1 10.943534 10.180584 23.205428
433 1 1 10.932033 10.001981 23.540642
434 1 1 11.217939 10.099578 23.771146
435 1 1 11.459483 10.014492 24.051889
436 1 1 11.459859 10.126078 24.415136
437 1 1 11.598072 10.130411 24.769083
438 1 1 11.919212 10.187290 24.964106
439 1 1 12.160175 9.897105 24.917962
440 1 1 12.399416 9.792317 24.641949
441 1 1 12.216512 9.839055 24.312159
442 1 1 12.477223 9.973792 24.070754
443 1 1 12.720441 10.016859 23.781981
444 1 1 13.039492 10.043259 23.577262
445 1 1 13.278173 9.927123 23.305336
446 1 1 13.600912 9.789540 23.451318
447 1 1 13.903168 9.590621 23.335246
448 1 1 14.194687 9.369756 23.438375
449 1 1 14.421373 9.304904 23.736380
450 1 1 14.389764 9.309410 24.115037
451 1 1 43.574195 39.828616 9.682880
452 1 1 43.693301 40.004298 9.998078
453 1 1 0.204754 39.733615 10.008061
454 1 1 0.061728 39.729281 9.656032
455 1 1 0.077887 39.555607 9.318428
456 1 1 0.393828 39.580249 9.108728
457 1 1 0.587129 39.809002 8.874833
458 1 1 0.645708 39.803738 8.499412
459 1 1 0.624585 39.561286 8.207572
460 1 1 0.578524 39.770742 7.893874
461 1 1 0.566221 39.663961 7.529393
462 1 1 0.780485 39.428129 7.322333
463 1 1 0.913707 39.243346 7.018183
464 1 1 0.709988 39.283346 6.699909
465 1 1 0.853728 39.168350 6.367471
466 1 1 0.768880 39.247643 6.005651
467 1 1 0.876241 39.178983 5.647658
468 1 1 1.149226 38.960994 5.498126
469 1 1 1.467739 38.772662 5.584617
470 1 1 1.427208 38.399783 5.523634
471 1 1 1.780300 38.263145 5.491134
472 1 1 2.150026 38.350598 5.498537
473 1 1 2.246706 38.505576 5.831755
474 1 1 2.100646 38.357015 6.149554
475 1 1 1.729632 38.294512 6.202863
476 1 1 1.503730 38.314208 6.507790
477 1 1 1.193049 38.524808 6.567162
478 1 1 0.822964 38.452216 6.613723
479 1 1 0.512147 38.388046 6.822708
480 1 1 0.168681 38.495005 6.945148
481 1 1 43.694191 38.203206 6.864162
482 1 1 43.461766 38.493122 6.943705
483 1 1 43.438858 38.578460 7.313289
484 1 1 43.614507 38.894730 7.429568
485 1 1 43.470873 39.246376 7.440276
486 1 1 43.165291 39.470970 7.416253
487 1 1 43.126606 39.819722 7.562115
488 1 1 42.945498 40.092794 7.369679
489 1 1 43.017564 40.441549 7.502254
490 1 1 43.111556 40.684271 7.779114
491 1 1 42.943972 40.897769 8.045073
492 1 1 42.695896 40.967253 8.324412
493 1 1 42.615095 41.168182 8.636660
494 1 1 42.346413 41.428149 8.568634
495 1 1 42.452726 41.751196 8.399111
496 1 1 42.551546 42.083517 8.554666
497 1 1 42.482017 42.429360 8.413394
498 1 1 42.662203 42.593469 8.121845
499 1 1 43.024753 42.552658 8.015582
500 1 1 43.133463 42.897107 7.897528
501 1 1 43.363817 43.074307 8.142349
502 1 1 43.672013 43.190482 8.331870
503 1 1 0.185547 43.447956 8.254649
504 1 1 0.096535 43.224023 7.960828
505 1 1 0.403054 43.117873 7.762894
506 1 1 0.279687 42.911519 7.468618
507 1 1 0.480239 42.886805 7.146798
508 1 1 0.237193 42.950093 6.861625
509 1 1 43.628799 42.977991 6.968959
510 1 1 43.661690 42.641791 7.142992
511 1 1 43.456255 42.570555 7.454635
512 1 1 43.621178 42.434521 7.768793
513 1 1 43.743954 42.495365 8.123228
514 1 1 43.754824 42.430293 8.497457
515 1 1 0.073327 42.649503 8.799012
516 1 1 0.169867 42.781018 9.142208
517 1 1 0.109493 42.696418 9.507719
518 1 1 0.062459 42.965896 9.771479
519 1 1 43.699996 43.315219 9.864005
520 1 1 43.441379 43.234950 10.130602
521 1 1 43.066430 43.193290 10.085019
522 1 1 42.705044 43.251604 10.186999
523 1 1 42.591047 43.285744 10.547885
524 1 1 42.281599 43.495094 10.617273
525 1 1 42.237664 43.649718 10.961600
526 1 1 42.557503 0.037199 10.814008
527 1 1 42.298228 0.300326 10.903120
528 1 1 42.374576 0.653328 11.021273
529 1 1 42.390235 0.990668 10.847041
530 1 1 42.502173 1.353806 10.846159
531 1 1 42.481139 1.476090 10.486988
532 1 1 42.390275 1.253506 10.192709
533 1 1 42.198906 1.230139 9.865246
534 1 1 41.833657 1.295479 9.783245
535 1 1 41.511657 1.495212 9.811930
536 1 1 41.193370 1.613606 9.982447
537 1 1 40.873088 1.610493 9.777972
538 1 1 40.643536 1.360376 9.948699
539 1 1 40.782022 1.097096 10.185142
540 1 1 41.112006 1.151769 10.365479
541 1 1 41.408784 1.260830 10.576260
542 1 1 41.307017 1.516049 10.838762
543 1 1 41.149572 1.791110 11.048410
544 1 1 41.041903 1.875917 11.402832
545 1 1 41.256283 1.871887 11.716560
546 1 1 41.539478 1.811201 11.962564
547 1 1 41.572778 2.013066 12.282785
548 1 1 41.697882 2.206755 12.584834
549 1 1 41.874842 2.516638 12.715439
550 1 1 42.163357 2.720815 12.575901
551 1 1 42.478130 2.905735 12.681365
552 1 1 42.790716 2.946340 12.893594
553 1 1 42.818459 3.265579 13.097841
554 1 1 43.088579 3.531855 13.074767
555 1 1 43.268358 3.838656 12.940779
556 1 1 43.150005 4.081369 12.673417
557 1 1 42.859051 4.283180 12.811324
558 1 1 42.492635 4.233236 12.898760
559 1 1 42.179263 4.062484 12.768215
560 1 1 41.889709 3.816446 12.763347
561 1 1 42.029985 3.469073 12.699670
562 1 1 41.866457 3.341910 12.381098
563 1 1 41.505787 3.386138 12.269918
564 1 1 41.152969 3.481241 12.374200
565 1 1 41.122375 3.756451 12.634437
566 1 1 40.995970 3.791783 12.991051
567 1 1 40.803754 3.652757 13.287909
568 1 1 40.507692 3.418603 13.244101
569 1 1 40.190707 3.575690 13.105376
570 1 1 40.010807 3.604051 12.771863
571 1 1 39.722067 3.548706 12.531101
572 1 1 39.606670 3.230206 12.358933
573 1 1 39.298284 3.015217 12.303455
574 1 1 38.950737 2.871520 12.357881
575 1 1 38.849183 2.515175 12.442173
576 1 1 38.515331 2.432048 12.280826
577 1 1 38.396611 2.656447 11.998071
578 1 1 38.163633 2.743920 11.710895
579 1 1 38.047699 3.105791 11.713756
580 1 1 37.792570 3.177191 11.986173
581 1 1 37.638623 2.924486 12.224586
582 1 1 37.792747 2.636985 12.419492
583 1 1 37.835786 2.259611 12.407788
584 1 1 37.727441 1.895386 12.408824
585 1 1 37.487782 1.602581 12.373768
586 1 1 37.310372 1.461906 12.678950
587 1 1 36.999363 1.395789 12.887042
588 1 1 36.632896 1.456003 12.967518
589 1 1 36.374153 1.199167 13.074698
590 1 1 36.407341 1.099867 13.439990
591 1 1 36.618210 1.009489 13.742919
592 1 1 36.967600 1.146277 13.803053
593 1 1 37.327999 1.149505 13.923477
594 1 1 37.547373 1.447253 14.010777
595 1 1 37.382569 1.700069 14.241696
596 1 1 37.203184 1.590172 14.558151
597 1 1 37.073272 1.561226 14.914080
598 1 1 36.744119 1.372042 14.897724
599 1 1 36.499794 1.612726 14.734088
600 1 1 36.281557 1.718632 14.441588
601 1 1 36.446902 1.644979 14.107467
602 1 1 36.505297 1.971488 13.922044
603 1 1 36.306342 2.290911 13.974823
604 1 1 36.333705 2.668564 14.006908
605 1 1 36.526628 2.993892 14.043543
606 1 1 36.787044 3.260672 14.117110
607 1 1 37.147994 3.178857 14.030965
608 1 1 37.385612 2.882314 14.030824
609 1 1 37.712757 2.858886 13.838920
610 1 1 37.989214 3.013537 14.048813
611 1 1 38.352485 3.120841 14.018489
612 1 1 38.410693 3.441168 13.822523
613 1 1 38.131130 3.679145 13.920557
614 1 1 38.029654 4.005008 14.087639
615 1 1 37.732446 4.178780 13.926794
616 1 1 37.634263 4.455096 13.685114
617 1 1 37.573900 4.584402 13.332926
618 1 1 37.821635 4.754733 13.100516
619 1 1 38.165279 4.688501 13.248577
620 1 1 38.258365 4.613235 13.609230
621 1 1 38.478930 4.482928 13.889891
622 1 1 38.571667 4.282981 14.199440
623 1 1 38.838564 4.039115 14.082414
624 1 1 39.149882 3.901635 13.913354
625 1 1 39.510660 3.885458 13.795130
626 1 1 39.878888 3.798865 13.831320
627 1 1 40.030148 4.031106 14.091290
628 1 1 40.362968 4.207735 14.140618
629 1 1 40.571993 4.438560 14.358398
630 1 1 40.554693 4.781959 14.196602
631 1 1 40.880922 4.971820 14.240509
632 1 1 40.962277 5.099188 14.589161
633 1 1 40.850147 5.264933 14.912202
634 1 1 40.617075 5.508111 15.088107
635 1 1 40.583977 5.475751 15.465277
636 1 1 40.633285 5.282372 15.788654
637 1 1 40.819287 4.984567 15.933967
638 1 1 40.881251 4.732869 15.656103
639 1 1 41.166912 4.722853 15.405708
640 1 1 41.444828 4.981173 15.384894
641 1 1 41.771176 5.007940 15.192073
642 1 1 42.023998 4.732500 15.124146
643 1 1 42.240768 4.724580 14.812139
644 1 1 42.595791 4.835715 14.734634
645 1 1 42.972522 4.866583 14.773638
646 1 1 43.144187 5.150733 14.958543
647 1 1 43.169113 5.332874 15.291114
648 1 1 42.925251 5.285034 15.578590
649 1 1 43.062889 5.347753 15.927191
650 1 1 42.830691 5.163913 16.165280
651 1 1 42.740072 5.365213 16.474580
652 1 1 42.364999 5.425623 16.482995
653 1 1 42.235456 5.238503 16.787306
654 1 1 41.938188 5.428672 16.928256
655 1 1 41.565611 5.503033 16.920723
656 1 1 41.487936 5.819988 17.115418
657 1 1 41.303716 6.126040 17.245014
658 1 1 41.105119 6.233431 17.550671
659 1 1 40.735888 6.143611 17.551451
660 1 1 40.487359 5.894285 17.694525
661 1 1 40.507244 5.580121 17.907376
662 1 1 40.176899 5.543319 18.091543
663 1 1 39.924011 5.566709 18.374210
664 1 1 39.635492 5.324952 18.322145
665 1 1 39.528212 5.060407 18.572956
666 1 1 39.745144 4.749486 18.547093
667 1 1 40.016645 4.517835 18.677572
668 1 1 40.344172 4.326502 18.654805
669 1 1 40.669958 4.315600 18.459499
670 1 1 40.923218 4.262767 18.181169
671 1 1 41.064372 4.574787 18.016490
672 1 1 41.332297 4.841626 18.054083
673 1 1 41.697681 4.874996 17.955186
674 1 1 41.863590 5.043058 18.252893
675 1 1 41.957799 4.799558 18.528995
676 1 1 42.011447 4.704233 18.892911
677 1 1 42.100579 4.550833 19.228952
678 1 1 42.344523 4.329574 19.418519
679 1 1 42.686084 4.414778 19.561616
680 1 1 43.050772 4.321187 19.613029
681 1 1 43.246084 4.612071 19.465925
682 1 1 43.585634 4.583628 19.297709
683 1 1 0.033918 4.897382 19.365594
684 1 1 0.346322 4.716497 19.246915
685 1 1 0.305502 4.341317 19.291345
686 1 1 0.132029 4.061319 19.480839
687 1 1 43.752965 4.220477 19.798767
688 1 1 43.507086 4.232115 20.088264
689 1 1 43.320670 4.159640 20.411368
690 1 1 42.987517 3.978948 20.438928
691 1 1 42.654142 4.145075 20.363675
692 1 1 42.363945 4.376217 20.445891
693 1 1 42.075905 4.623860 20.435622
694 1 1 41.900345 4.944394 20.331522
695 1 1 41.827914 5.203028 20.600339
696 1 1 42.115278 5.361448 20.791975
697 1 1 42.293238 5.220823 21.096861
698 1 1 42.579497 5.023785 21.250586
699 1 1 42.452564 4.669701 21.304553
700 1 1 42.079333 4.601616 21.326072
701 1 1 41.866537 4.898227 21.431618
702 1 1 41.771885 5.038501 21.771859
703 1 1 41.525063 5.327082 21.786016
704 1 1 41.193176 5.427028 21.630255
705 1 1 41.138748 5.606305 21.299654
706 1 1 41.331771 5.439575 21.017974
707 1 1 41.440378 5.726811 20.794144
708 1 1 41.463476 5.956446 20.492260
709 1 1 41.185054 6.193848 20.389686
710 1 1 41.270495 6.506464 20.191263
711 1 1 41.400809 6.809092 20.380562
712 1 1 41.588243 6.977064 20.665262
713 1 1 41.657881 7.347526 20.617213
714 1 1 41.493825 7.675657 20.716287
715 1 1 41.387143 7.737429 21.075735
716 1 1 41.163103 7.500550 21.270913
717 1 1 41.228899 7.543585 21.642691
718 1 1 41.572332 7.414202 21.741249
719 1 1 41.871078 7.338486 21.963550
720 1 1 42.136615 7.336906 22.235373
721 1 1 42.489155 7.429472 22.127917
722 1 1 42.581724 7.321135 21.775647
723 1 1 42.447454 7.021025 21.585107
724 1 1 42.645245 6.900773 21.283747
725 1 1 42.566207 6.623852 21.035820
726 1 1 42.681544 6.362428 20.785310
727 1 1 42.985479 6.392582 20.559226
728 1 1 43.134675 6.329016 20.215569
729 1 1 43.246883 5.967948 20.177625
730 1 1 43.618266 5.889031 20.161926
731 1 1 0.220790 5.964501 20.057831
732 1 1 0.463151 5.827557 19.799167
733 1 1 0.836162 5.835935 19.871227
734 1 1 1.103792 5.566360 19.861061
735 1 1 1.108578 5.288267 20.119985
736 1 1 1.145186 4.955568 20.299906
737 1 1 1.181741 4.578696 20.332015
738 1 1 1.121286 4.409561 20.666886
739 1 1 0.787502 4.228190 20.676525
740 1 1 0.772866 3.894739 20.494877
741 1 1 0.514385 3.786874 20.238064
742 1 1 0.415908 3.431445 20.329567
743 1 1 0.287970 3.251312 20.638733
744 1 1 0.473003 3.397800 20.936565
745 1 1 0.794311 3.487737 21.118425
746 1 1 1.086309 3.730902 21.121158
747 1 1 1.410592 3.609849 20.964356
748 1 1 1.434859 3.297992 20.748587
749 1 1 1.738140 3.076404 20.806200
750 1 1 1.683861 2.756850 21.004540
751 1 1 1.727057 2.380100 20.980176
752 1 1 1.485510 2.097900 21.060286
753 1 1 1.318190 1.844910 21.289197
754 1 1 1.071374 1.625400 21.101322
755 1 1 0.767492 1.791386 20.944784
756 1 1 0.637780 1.606040 20.639462
757 1 1 0.727792 1.804613 20.328229
758 1 1 0.626904 1.634653 20.003675
759 1 1 0.609932 1.409762 19.697838
760 1 1 0.863675 1.309347 19.433393
761 1 1 1.063151 1.054630 19.234073
762 1 1 1.324520 1.205041 19.002853
763 1 1 1.651942 1.185272 19.194697
764 1 1 1.549687 1.185169 19.560680
765 1 1 1.705446 0.991427 19.848088
766 1 1 2.048979 1.036054 20.004273
767 1 1 2.298215 0.855831 19.781111
768 1 1 2.654449 0.966388 19.853739
769 1 1 2.860532 0.691972 20.016912
770 1 1 3.202586 0.532399 20.060908
771 1 1 3.581055 0.554689 20.086684
772 1 1 3.742142 0.894766 20.139592
773 1 1 4.075604 0.904230 20.321562
774 1 1 4.285047 1.096365 20.573788
775 1 1 4.625071 1.250035 20.645684
776 1 1 4.911226 1.064609 20.813412
777 1 1 5.264197 1.122201 20.941843
778 1 1 5.626966 1.221283 20.996447
779 1 1 5.846613 1.066373 20.727824
780 1 1 6.152817 0.862600 20.823298
781 1 1 6.177017 0.697448 21.164677
782 1 1 6.373534 0.372222 21.161732
783 1 1 6.701445 0.182901 21.129601
784 1 1 7.022305 0.221065 20.929619
785 1 1 7.138156 0.305656 20.577735
786 1 1 6.901099 0.256143 20.284900
787 1 1 7.116375 43.699131 20.310690
788 1 1 6.863941 43.428989 20.398442
789 1 1 6.745034 43.180116 20.137055
790 1 1 6.481933 43.274765 19.879724
791 1 1 6.183519 43.406957 19.685111
792 1 1 5.888306 43.399682 19.445953
793 1 1 5.539632 43.393699 19.596920
794 1 1 5.167289 43.373724 19.670144
795 1 1 4.794353 43.368437 19.597410
796 1 1 4.620431 43.072605 19.760611
797 1 1 4.850041 42.945557 20.035452
798 1 1 5.192079 42.954823 20.200753
799 1 1 5.345457 43.283154 20.315092
800 1 1 5.229040 43.574025 20.530130
801 1 1 5.263469 0.162089 20.689751
802 1 1 4.899739 0.131583 20.584062
803 1 1 4.647412 0.025893 20.320318
804 1 1 4.480472 0.161313 20.006961
805 1 1 4.352106 43.569159 20.092764
806 1 1 4.014164 43.670986 20.233570
807 1 1 4.005432 0.236699 20.437106
808 1 1 3.950092 0.303954 20.806990
809 1 1 3.782465 0.372651 21.141028
810 1 1 3.777146 0.629415 21.421107
811 1 1 3.973234 0.587720 21.743924
812 1 1 4.347267 0.542131 21.793126