LAMMPS data file for polymer system

27000 atoms
26940 bonds

1 atom types
1 bond types

0.0 43.75506318037897 xlo xhi
0.0 43.75506318037897 ylo yhi
0.0 43.75506318037897 zlo zhi

Masses

1 5.65487

Atoms

1 1 1 30.771816 12.805897 27.403514
2 1 1 30.530760 12.785913 27.696588
3 1 1 30.181294 12.799102 27.547928
4 1 1 29.862257 12.984371 27.638982
5 1 1 29.648509 13.072561 27.940535
6 1 1 29.736798 12.926786 28.280174
7 1 1 29.755841 12.585648 28.446493
8 1 1 29.807491 12.331075 28.169139
9 1 1 29.575461 12.415848 27.880390
10 1 1 29.245194 12.436137 27.693544
11 1 1 29.132656 12.746455 27.505294
12 1 1 29.114097 13.058042 27.288570
13 1 1 29.361240 13.337290 27.215489
14 1 1 29.453773 13.669882 27.056681
15 1 1 29.365037 13.756426 26.697465
16 1 1 29.195682 13.483382 26.494571
17 1 1 29.179806 13.106727 26.542305
18 1 1 29.121374 12.760226 26.686953
19 1 1 29.088457 12.478334 26.434261
20 1 1 29.415021 12.286868 26.401145
21 1 1 29.780670 12.375323 26.454781
22 1 1 30.008534 12.456370 26.747884
23 1 1 29.823472 12.395237 27.074097
24 1 1 30.033350 12.233208 27.346306
25 1 1 30.106316 11.898824 27.511422
26 1 1 30.387672 11.868063 27.764982
27 1 1 30.522406 11.513612 27.789704
28 1 1 30.738132 11.262596 27.603014
29 1 1 31.113239 11.268734 27.663485
30 1 1 31.351035 10.980485 27.732518
31 1 1 31.587219 10.753520 27.539893
32 1 1 31.701184 10.510990 27.270466
33 1 1 31.579585 10.609420 26.924164
34 1 1 31.200642 10.586561 26.907454
35 1 1 30.998842 10.670941 27.218189
36 1 1 31.057634 10.405116 27.483294
37 1 1 31.114423 10.077748 27.667698
38 1 1 31.478588 9.969770 27.678881
39 1 1 31.534945 9.755833 27.987840
40 1 1 31.768883 9.459966 27.941630
41 1 1 32.024417 9.204087 28.058370
42 1 1 32.382693 9.226184 27.933672
43 1 1 32.742420 9.122654 27.999077
44 1 1 32.975925 9.407090 27.904359
45 1 1 33.074929 9.741701 28.054805
46 1 1 33.148801 10.113958 28.035627
47 1 1 33.305274 10.399169 27.839233
48 1 1 33.404836 10.477830 27.481043
49 1 1 33.726731 10.620017 27.337634
50 1 1 33.664393 10.949677 27.159201
51 1 1 33.492384 11.249793 27.316501
52 1 1 33.728076 11.474504 27.512344
53 1 1 33.992578 11.387423 27.770909
54 1 1 34.046050 11.022874 27.863886
55 1 1 34.175106 10.717516 28.049631
56 1 1 34.254185 10.577632 28.393983
57 1 1 34.272689 10.368667 28.710830
58 1 1 34.118962 10.030378 28.631278
59 1 1 33.897210 9.760129 28.780247
60 1 1 33.794415 9.511008 28.512345
61 1 1 33.689456 9.426975 28.156927
62 1 1 33.511054 9.115195 28.032967
63 1 1 33.411496 8.775324 27.895217
64 1 1 33.483086 8.736324 27.524065
65 1 1 33.802224 8.934773 27.467765
66 1 1 34.101445 9.160959 27.528646
67 1 1 34.468731 9.220895 27.605514
68 1 1 34.768115 9.253352 27.373748
69 1 1 35.140391 9.311857 27.324879
70 1 1 35.170599 9.667458 27.194361
71 1 1 35.108763 10.041804 27.173349
72 1 1 34.943019 10.356925 27.040580
73 1 1 35.006808 10.618258 27.308975
74 1 1 34.722629 10.821297 27.458700
75 1 1 34.691208 11.180389 27.338429
76 1 1 34.375180 11.344169 27.205377
77 1 1 34.133512 11.432180 26.925644
78 1 1 34.204544 11.424410 26.552423
79 1 1 34.300757 11.658267 26.268780
80 1 1 34.111723 11.556937 25.955095
81 1 1 33.922264 11.228186 25.934406
82 1 1 33.548338 11.166976 25.905551
83 1 1 33.261958 11.119214 25.660387
84 1 1 33.021626 11.412853 25.639979
85 1 1 33.233513 11.710399 25.535240
86 1 1 33.395717 11.928725 25.800614
87 1 1 33.195853 11.929123 26.123807
88 1 1 32.927828 11.747558 26.322797
89 1 1 32.813040 11.599337 26.653333
90 1 1 32.552143 11.615548 26.929141
91 1 1 32.288533 11.719924 27.182154
92 1 1 32.401867 11.945082 27.466512
93 1 1 32.641917 11.752005 27.688991
94 1 1 32.743824 11.388073 27.728591
95 1 1 32.494396 11.111608 27.652744
96 1 1 32.426008 11.042870 27.285323
97 1 1 32.306243 10.715987 27.132996
98 1 1 32.435223 10.514769 26.837572
99 1 1 32.629950 10.192973 26.891690
100 1 1 32.984447 10.086469 26.805731
101 1 1 33.242556 9.983719 26.546459
102 1 1 33.306224 10.014048 26.173060
103 1 1 33.183923 10.326355 25.994435
104 1 1 33.041557 10.655295 26.120651
105 1 1 32.779719 10.907647 26.230922
106 1 1 32.507866 10.906873 25.965413
107 1 1 32.586561 10.945614 25.595675
108 1 1 32.668102 10.798437 25.254956
109 1 1 32.426010 10.564499 25.078706
110 1 1 32.301275 10.207146 25.044930
111 1 1 32.030825 10.144260 24.785504
112 1 1 31.797153 9.860884 24.688059
113 1 1 31.641298 9.548419 24.837973
114 1 1 31.422607 9.326170 25.055182
115 1 1 31.442392 9.304442 25.434044
116 1 1 31.111964 9.170149 25.565125
117 1 1 30.823040 9.114938 25.324553
118 1 1 30.747332 9.027254 24.962642
119 1 1 30.743215 9.014894 24.582865
120 1 1 30.765100 9.039355 24.204285
121 1 1 30.854452 9.371159 24.042043
122 1 1 30.918879 9.426054 23.671590
123 1 1 31.182337 9.695809 23.624454
124 1 1 31.333322 9.996623 23.448061
125 1 1 31.342850 10.250435 23.165416
126 1 1 31.057924 10.185438 22.922532
127 1 1 30.839660 9.997698 22.674510
128 1 1 30.480762 9.951266 22.558598
129 1 1 30.149874 10.079941 22.694082
130 1 1 29.829757 9.877785 22.661558
131 1 1 29.754748 9.838302 22.291133
132 1 1 29.898530 9.656081 21.990264
133 1 1 29.635278 9.565196 21.731733
134 1 1 29.371115 9.365924 21.544893
135 1 1 29.306984 9.390139 21.171128
136 1 1 29.131500 9.141331 20.943752
137 1 1 28.821630 8.931203 20.878738
138 1 1 28.657035 8.693346 20.632298
139 1 1 28.371626 8.728484 20.383890
140 1 1 28.007588 8.713390 20.491819
141 1 1 27.741970 8.982616 20.454886
142 1 1 27.766514 9.235608 20.172410
143 1 1 28.027016 9.165439 19.904801
144 1 1 28.217594 9.266811 19.592065
145 1 1 28.419399 9.517094 19.389498
146 1 1 28.615926 9.750195 19.616304
147 1 1 28.627347 10.111430 19.733690
148 1 1 28.917706 10.356538 19.729981
149 1 1 28.832394 10.718645 19.807440
150 1 1 28.514737 10.892604 19.692408
151 1 1 28.135292 10.878683 19.677335
152 1 1 27.994336 10.600582 19.894571
153 1 1 27.702306 10.359646 19.927248
154 1 1 27.643606 10.183869 20.258996
155 1 1 27.559800 9.987254 20.573192
156 1 1 27.588300 9.642119 20.729618
157 1 1 27.262333 9.507073 20.870714
158 1 1 26.983454 9.461745 21.124824
159 1 1 26.897131 9.729378 21.380403
160 1 1 26.738115 9.561961 21.682206
161 1 1 26.522797 9.272708 21.562325
162 1 1 26.280869 8.980358 21.542277
163 1 1 25.995372 8.746881 21.450734
164 1 1 26.104176 8.496305 21.186588
165 1 1 26.262002 8.381508 20.860532
166 1 1 26.462671 8.067699 20.935739
167 1 1 26.341176 7.761225 20.746762
168 1 1 26.508836 7.597967 20.447367
169 1 1 26.598791 7.870229 20.198004
170 1 1 26.410489 8.054665 19.924278
171 1 1 26.157105 8.226552 19.699220
172 1 1 26.263159 8.564995 19.562805
173 1 1 26.384066 8.692915 19.226029
174 1 1 26.700588 8.495998 19.152292
175 1 1 27.032869 8.420164 18.984249
176 1 1 27.217846 8.579808 18.693221
177 1 1 27.295219 8.815405 18.405284
178 1 1 27.533672 9.080474 18.536729
179 1 1 27.887981 9.048492 18.403153
180 1 1 28.254621 8.948811 18.396943
181 1 1 28.496561 8.681313 18.277319
182 1 1 28.746851 8.540752 18.028326
183 1 1 28.953561 8.508998 17.711052
184 1 1 28.830668 8.395757 17.369769
185 1 1 28.997692 8.185035 17.101256
186 1 1 29.236607 8.414659 16.915265
187 1 1 29.251257 8.793083 16.883944
188 1 1 29.588161 8.949689 16.804128
189 1 1 29.797240 9.254651 16.891786
190 1 1 30.161857 9.292860 16.791812
191 1 1 30.309454 9.633861 16.712228
192 1 1 30.494214 9.850446 16.963930
193 1 1 30.443322 10.216517 17.052261
194 1 1 30.352161 10.439974 16.758737
195 1 1 30.073592 10.695914 16.722768
196 1 1 29.697714 10.700412 16.667130
197 1 1 29.333696 10.636402 16.578847
198 1 1 29.235001 10.283923 16.680915
199 1 1 29.045790 10.190427 16.996918
200 1 1 28.835059 9.875901 17.029557
201 1 1 28.770999 9.551926 16.841576
202 1 1 28.455916 9.453938 16.653106
203 1 1 28.209489 9.230637 16.469230
204 1 1 27.975533 8.931666 16.452481
205 1 1 27.872224 8.674057 16.192933
206 1 1 27.676030 8.348648 16.197013
207 1 1 27.532573 8.225445 15.867406
208 1 1 27.211557 8.026684 15.910339
209 1 1 27.128091 7.812644 16.213026
210 1 1 26.855999 7.591328 16.359265
211 1 1 26.623274 7.793620 16.581340
212 1 1 26.385102 7.555356 16.757136
213 1 1 26.322022 7.452952 17.117600
214 1 1 26.019655 7.655898 17.226167
215 1 1 25.689307 7.688173 17.411178
216 1 1 25.481660 7.970968 17.265200
217 1 1 25.277070 8.191947 17.033444
218 1 1 24.990514 8.018073 16.854409
219 1 1 24.743516 7.817640 17.062299
220 1 1 24.496066 7.539052 16.987751
221 1 1 24.375859 7.447707 16.639030
222 1 1 24.534356 7.152646 16.459536
223 1 1 24.902875 7.126188 16.548383
224 1 1 25.145337 7.004322 16.282373
225 1 1 25.350757 6.735019 16.110099
226 1 1 25.420623 6.467494 16.370770
227 1 1 25.272199 6.469094 16.720581
228 1 1 25.377086 6.199644 16.967149
229 1 1 25.305488 5.826504 16.960814
230 1 1 25.598431 5.664462 16.781017
231 1 1 25.893462 5.737585 16.552960
232 1 1 26.228466 5.813540 16.715449
233 1 1 26.199820 5.903923 17.083431
234 1 1 26.282646 5.742435 17.417289
235 1 1 26.133642 5.877909 17.739539
236 1 1 25.784562 5.734389 17.783643
237 1 1 25.481450 5.963430 17.791622
238 1 1 25.358542 6.099873 18.124303
239 1 1 25.327683 6.463674 18.229646
240 1 1 25.434866 6.821947 18.162176
241 1 1 25.417219 7.163540 18.327713
242 1 1 25.657122 7.397174 18.148098
243 1 1 25.769896 7.755944 18.093637
244 1 1 26.038351 7.921682 17.881830
245 1 1 25.984520 8.297850 17.882200
246 1 1 26.331171 8.444967 17.933084
247 1 1 26.545973 8.271092 18.193906
248 1 1 26.447215 8.160642 18.543831
249 1 1 26.097448 8.300388 18.594175
250 1 1 25.856542 8.191728 18.867226
251 1 1 25.549170 8.140090 19.084611
252 1 1 25.182142 8.104520 18.992823
253 1 1 24.847572 8.198717 18.839232
254 1 1 24.547119 8.043359 19.012414
255 1 1 24.248343 8.230957 19.153624
256 1 1 23.919157 8.080992 19.270014
257 1 1 23.630266 8.209228 19.480960
258 1 1 23.508890 8.371053 19.802643
259 1 1 23.257664 8.325688 20.084117
260 1 1 22.973374 8.115363 19.945038
261 1 1 22.725664 7.886250 20.119815
262 1 1 22.502097 7.673543 20.341567
263 1 1 22.566016 7.305762 20.270496
264 1 1 22.667292 7.097059 19.969521
265 1 1 22.539682 6.956312 19.640421
266 1 1 22.182892 7.066225 19.569571
267 1 1 21.968965 6.878454 19.821319
268 1 1 21.602027 6.975546 19.803168
269 1 1 21.535736 7.305504 19.626722
270 1 1 21.261307 7.425416 19.392821
271 1 1 21.100168 7.769332 19.405312
272 1 1 20.757355 7.875486 19.280370
273 1 1 20.711087 7.920754 18.905923
274 1 1 20.946340 7.768081 18.649512
275 1 1 21.120200 7.802978 18.313425
276 1 1 20.991766 8.105665 18.122938
277 1 1 20.624581 8.203431 18.127131
278 1 1 20.365781 7.993741 17.944231
279 1 1 19.987611 8.028893 17.956565
280 1 1 19.608180 8.027526 17.977294
281 1 1 19.428970 8.014707 17.642451
282 1 1 19.341584 8.363733 17.520204
283 1 1 19.055111 8.592844 17.420996
284 1 1 18.756357 8.653963 17.194257
285 1 1 18.632620 8.439831 16.905750
286 1 1 18.342390 8.364825 16.672210
287 1 1 18.383095 8.147176 16.363387
288 1 1 18.290725 7.857372 16.135611
289 1 1 18.389834 7.767101 15.780044
290 1 1 18.732511 7.603116 15.771036
291 1 1 19.026044 7.748038 15.964003
292 1 1 19.328397 7.537419 15.871145
293 1 1 19.670983 7.377053 15.907447
294 1 1 20.007708 7.252207 16.031664
295 1 1 20.332554 7.236832 15.835097
296 1 1 20.508662 7.020853 15.576758
297 1 1 20.389944 6.928823 15.227707
298 1 1 20.442118 7.145753 14.920104
299 1 1 20.117138 7.128613 14.723903
300 1 1 19.761443 7.031267 14.632226
301 1 1 19.511798 6.933966 14.901689
302 1 1 19.169105 7.080846 14.975091
303 1 1 18.955017 7.370463 15.096285
304 1 1 18.577261 7.335914 15.073777
305 1 1 18.412751 7.486924 14.766315
306 1 1 18.213449 7.710012 14.531985
307 1 1 18.267000 8.083627 14.576072
308 1 1 18.539152 8.331147 14.671295
309 1 1 18.680022 8.646640 14.829471
310 1 1 18.613862 9.013965 14.758090
311 1 1 18.690323 9.386188 14.760012
312 1 1 19.062213 9.445841 14.709626
313 1 1 19.241576 9.703779 14.923395
314 1 1 19.381683 9.954086 15.172627
315 1 1 19.544128 9.799105 15.479209
316 1 1 19.523395 9.768163 15.857379
317 1 1 19.521643 9.451073 16.066786
318 1 1 19.383458 9.379643 16.413489
319 1 1 19.173735 9.062986 16.401478
320 1 1 19.044058 8.974349 16.055461
321 1 1 18.933079 9.143012 15.733535
322 1 1 19.023439 9.493106 15.616619
323 1 1 18.847714 9.746977 15.395102
324 1 1 18.603639 10.017470 15.287115
325 1 1 18.393339 10.222149 15.045701
326 1 1 18.335220 10.570311 15.186432
327 1 1 18.143288 10.609174 15.512088
328 1 1 17.972658 10.498708 15.833153
329 1 1 17.864976 10.186426 16.020996
330 1 1 17.504936 10.076188 16.072166
331 1 1 17.403376 9.715866 16.006942
332 1 1 17.279841 9.382347 16.140748
333 1 1 16.900451 9.375829 16.120248
334 1 1 16.618917 9.581563 16.271286
335 1 1 16.252513 9.492661 16.318662
336 1 1 16.038576 9.355351 16.601110
337 1 1 15.844471 9.039763 16.685534
338 1 1 15.668067 8.801994 16.447317
339 1 1 15.918185 8.623647 16.223636
340 1 1 16.017579 8.306948 16.038642
341 1 1 16.230227 8.107263 16.282171
342 1 1 16.561084 8.024141 16.449578
343 1 1 16.807591 7.735222 16.462217
344 1 1 17.136748 7.848787 16.310038
345 1 1 17.431098 7.875103 16.548922
346 1 1 17.555036 7.692202 16.858093
347 1 1 17.400621 7.346767 16.893179
348 1 1 17.461422 7.174803 16.559815
349 1 1 17.393000 6.801037 16.564002
350 1 1 17.134024 6.703377 16.303629
351 1 1 17.033400 6.848049 15.966962
352 1 1 17.206472 6.665022 15.682450
353 1 1 17.465842 6.393070 15.738741
354 1 1 17.800881 6.335988 15.568769
355 1 1 17.789843 6.280186 15.193051
356 1 1 17.731908 6.360184 14.826112
357 1 1 17.969996 6.344503 14.530362
358 1 1 17.892684 6.134522 14.223229
359 1 1 17.738216 5.884795 13.982032
360 1 1 17.637636 5.526417 14.058509
361 1 1 17.834826 5.355591 14.334797
362 1 1 17.653718 5.399481 14.665967
363 1 1 17.285561 5.415207 14.573161
364 1 1 17.090084 5.186188 14.804978
365 1 1 17.231140 5.054999 15.132534
366 1 1 17.105988 4.700705 15.189214
367 1 1 16.772564 4.560729 15.305983
368 1 1 16.588821 4.502611 15.633491
369 1 1 16.386508 4.181006 15.627243
370 1 1 16.146337 4.005515 15.863720
371 1 1 15.838623 4.125447 16.051678
372 1 1 15.482991 4.143386 15.918998
373 1 1 15.268411 4.415249 15.762646
374 1 1 14.890838 4.439341 15.727172
375 1 1 14.523264 4.348698 15.759929
376 1 1 14.348419 4.650355 15.911034
377 1 1 14.344013 4.657436 16.290942
378 1 1 14.284107 4.723136 16.660395
379 1 1 13.994557 4.744296 16.905575
380 1 1 13.743490 5.028818 16.925880
381 1 1 13.690159 5.400869 16.981855
382 1 1 13.338894 5.473872 16.856621
383 1 1 13.208752 5.828492 16.815299
384 1 1 13.008965 5.839575 16.492248
385 1 1 12.826067 5.890811 16.163122
386 1 1 12.546147 5.888008 15.906146
387 1 1 12.646661 5.996791 15.556199
388 1 1 12.503336 6.228926 15.291678
389 1 1 12.130144 6.299910 15.282244
390 1 1 11.894524 6.007801 15.222618
391 1 1 11.814708 5.775973 14.932299
392 1 1 11.630384 5.573439 14.668851
393 1 1 11.653913 5.203900 14.583487
394 1 1 11.504505 5.136050 14.240743
395 1 1 11.780042 5.054676 13.992031
396 1 1 12.128895 5.170251 13.895366
397 1 1 12.148354 5.548312 13.862338
398 1 1 12.080382 5.774000 13.564270
399 1 1 11.914510 6.102647 13.658492
400 1 1 11.563157 6.164729 13.789249
401 1 1 11.408265 6.356156 14.078669
402 1 1 11.234744 6.389609 14.415079
403 1 1 10.864051 6.329222 14.472870
404 1 1 10.571056 6.261512 14.240558
405 1 1 10.338519 6.539636 14.126655
406 1 1 10.229099 6.519532 13.763305
407 1 1 9.900030 6.398757 13.616584
408 1 1 9.545996 6.370340 13.481483
409 1 1 9.228732 6.554285 13.581023
410 1 1 9.231583 6.933067 13.550757
411 1 1 9.483432 7.173433 13.398452
412 1 1 9.546622 7.547015 13.369410
413 1 1 9.848908 7.727948 13.226981
414 1 1 10.121976 7.927353 13.400393
415 1 1 10.369121 7.679587 13.548483
416 1 1 10.726711 7.704252 13.674661
417 1 1 11.102499 7.744462 13.714243
418 1 1 11.196973 7.642897 14.068022
419 1 1 10.970119 7.408603 14.263069
420 1 1 11.076779 7.169666 14.538627
421 1 1 11.437058 7.073804 14.465077
422 1 1 11.731747 6.892974 14.622745
423 1 1 12.039267 6.956044 14.408611
424 1 1 12.303506 7.143135 14.607546
425 1 1 12.345187 7.520155 14.630334
426 1 1 12.143477 7.683534 14.352809
427 1 1 12.150623 7.998381 14.140158
428 1 1 12.248347 8.080346 13.782203
429 1 1 12.567295 8.277325 13.719984
430 1 1 12.559286 8.640200 13.832492
431 1 1 12.757044 8.935101 13.967861
432 1 1 12.730293 9.314100 13.961244
433 1 1 12.522982 9.558290 13.756809
434 1 1 12.309072 9.777702 13.981533
435 1 1 12.314859 9.748280 14.360348
436 1 1 12.446568 9.583093 14.676206
437 1 1 12.782529 9.633520 14.846462
438 1 1 12.947850 9.903589 15.056537
439 1 1 13.112025 9.752181 15.363982
440 1 1 13.407065 9.591093 15.541188
441 1 1 13.372368 9.551101 15.917482
442 1 1 13.653859 9.652822 16.151609
443 1 1 13.647418 9.520369 16.507720
444 1 1 13.946794 9.523879 16.741732
445 1 1 14.274947 9.334164 16.768633
446 1 1 14.274341 8.957554 16.819271
447 1 1 14.189294 8.786226 17.147621
448 1 1 13.843734 8.719508 17.290927
449 1 1 13.770063 8.816421 17.650900
450 1 1 13.423554 8.972402 17.649854
451 1 1 23.352064 35.335963 42.140942
452 1 1 23.038802 35.254930 41.941691
453 1 1 22.703909 35.434331 41.949570
454 1 1 22.670401 35.578665 42.299491
455 1 1 22.439522 35.879481 42.324074
456 1 1 22.430730 36.069047 42.653296
457 1 1 22.651379 36.100286 42.961093
458 1 1 22.764738 35.853231 43.226637
459 1 1 22.892876 35.523115 43.364491
460 1 1 23.239263 35.388638 43.444062
461 1 1 23.459439 35.551864 43.707273
462 1 1 23.571867 35.913745 43.678952
463 1 1 23.660581 35.564337 0.044073
464 1 1 23.910894 35.440623 0.301829
465 1 1 24.252878 35.591604 0.370030
466 1 1 24.521202 35.564106 0.637698
467 1 1 24.686586 35.514978 0.976276
468 1 1 24.708092 35.580100 1.350036
469 1 1 24.385986 35.512347 1.539923
470 1 1 24.278507 35.180541 1.690764
471 1 1 23.996308 35.036580 1.900619
472 1 1 24.083115 34.925622 2.253540
473 1 1 24.448546 34.937399 2.357082
474 1 1 24.671051 34.968133 2.663590
475 1 1 24.951829 35.101143 2.882387
476 1 1 25.080452 35.268639 3.198300
477 1 1 24.980040 35.628090 3.269801
478 1 1 24.684489 35.734826 3.056126
479 1 1 24.409380 35.903418 2.855398
480 1 1 24.387865 35.743594 2.511315
481 1 1 24.329482 35.854004 2.152426
482 1 1 24.027358 36.079149 2.103123
483 1 1 23.870655 36.213165 2.422315
484 1 1 24.014040 36.435781 2.694864
485 1 1 24.197621 36.755036 2.788533
486 1 1 24.271798 36.968334 2.482916
487 1 1 24.555534 37.211606 2.414266
488 1 1 24.920787 37.272384 2.499685
489 1 1 25.091726 37.255132 2.838628
490 1 1 25.051726 37.093577 3.180242
491 1 1 25.074344 36.770236 3.378582
492 1 1 24.927428 36.420130 3.394139
493 1 1 24.583350 36.442106 3.553911
494 1 1 24.231303 36.577562 3.507922
495 1 1 24.126879 36.816613 3.784238
496 1 1 23.758959 36.747575 3.849572
497 1 1 23.555753 36.704115 4.167721
498 1 1 23.186968 36.689563 4.258197
499 1 1 22.835938 36.714860 4.401509
500 1 1 22.586040 36.992886 4.333301
501 1 1 22.461817 37.225594 4.059777
502 1 1 22.249228 37.137773 3.757298
503 1 1 22.179704 37.019048 3.403079
504 1 1 21.832751 37.102604 3.272535
505 1 1 21.498580 37.130099 3.093723
506 1 1 21.172337 36.959859 2.998939
507 1 1 20.866738 37.036761 2.786583
508 1 1 20.587637 36.854284 2.604361
509 1 1 20.328334 36.576680 2.614246
510 1 1 20.407823 36.206963 2.651540
511 1 1 20.204849 36.084156 2.948390
512 1 1 20.381641 35.931128 3.247936
513 1 1 20.562903 35.636675 3.405546
514 1 1 20.604235 35.284612 3.542452
515 1 1 20.963444 35.184277 3.469640
516 1 1 20.997565 34.829574 3.601630
517 1 1 21.184381 34.609751 3.848971
518 1 1 20.975752 34.368567 4.055621
519 1 1 21.161456 34.037881 4.031940
520 1 1 21.142392 33.909854 3.674665
521 1 1 21.011510 33.760873 3.350513
522 1 1 21.256389 33.864987 3.079229
523 1 1 21.553496 33.752466 2.870743
524 1 1 21.710815 33.407523 2.844959
525 1 1 22.072112 33.356070 2.739046
526 1 1 22.244154 33.034807 2.631383
527 1 1 22.171692 32.730081 2.416229
528 1 1 22.304580 32.811075 2.069558
529 1 1 22.118698 33.112352 1.931426
530 1 1 21.758327 33.225508 1.972999
531 1 1 21.636573 33.407587 1.662478
532 1 1 21.274161 33.305948 1.610256
533 1 1 21.010975 33.165618 1.845714
534 1 1 20.946399 32.792491 1.877434
535 1 1 20.862273 32.553273 2.160449
536 1 1 20.729225 32.625460 2.508999
537 1 1 20.628670 32.337195 2.735255
538 1 1 20.682759 31.985566 2.868791
539 1 1 20.355909 31.820719 2.970742
540 1 1 20.216491 31.483851 3.077899
541 1 1 19.948358 31.258185 3.224800
542 1 1 19.927403 30.935544 3.025142
543 1 1 20.067625 30.592125 3.107612
544 1 1 19.881082 30.445570 3.404467
545 1 1 19.556762 30.477457 3.599915
546 1 1 19.410703 30.216865 3.834774
547 1 1 19.435685 29.920793 4.071664
548 1 1 19.449693 29.546666 4.006602
549 1 1 19.124019 29.364547 3.934703
550 1 1 18.949858 29.292766 3.604680
551 1 1 19.030977 29.467776 3.277279
552 1 1 18.996459 29.810758 3.117366
553 1 1 18.946771 29.875382 2.746212
554 1 1 18.779990 29.681038 2.465474
555 1 1 18.741297 29.355035 2.274096
556 1 1 18.939400 29.114716 2.056376
557 1 1 19.108496 29.101382 1.716334
558 1 1 18.914820 29.031355 1.396981
559 1 1 18.709604 29.142067 1.096933
560 1 1 18.567956 28.879136 0.861981
561 1 1 18.558167 28.556972 1.063263
562 1 1 18.833894 28.307890 1.142844
563 1 1 18.950653 28.186191 1.483368
564 1 1 18.660534 28.096938 1.711983
565 1 1 18.363348 28.281727 1.563882
566 1 1 18.175597 28.111932 1.280476
567 1 1 17.975586 27.956415 0.997262
568 1 1 17.753459 27.655667 1.065164
569 1 1 17.531083 27.564301 0.770883
570 1 1 17.158983 27.487884 0.760781
571 1 1 17.034138 27.509513 1.119035
572 1 1 16.905550 27.674572 1.436243
573 1 1 16.634547 27.651984 1.701661
574 1 1 16.407732 27.347198 1.709459
575 1 1 16.102043 27.218443 1.894868
576 1 1 15.776508 27.033506 1.959870
577 1 1 15.426145 27.076061 2.100706
578 1 1 15.122947 27.035505 1.875259
579 1 1 14.896089 27.335858 1.823071
580 1 1 14.980220 27.699073 1.749608
581 1 1 15.230133 27.771471 1.472656
582 1 1 15.170450 27.786102 1.097658
583 1 1 15.086372 27.840216 0.731048
584 1 1 15.208578 28.067337 0.451975
585 1 1 15.123952 28.064863 0.081527
586 1 1 14.860612 28.274930 43.660737
587 1 1 14.601030 28.478454 0.094340
588 1 1 14.281755 28.667423 0.176526
589 1 1 13.968784 28.720780 43.722779
590 1 1 14.051810 28.363695 43.622792
591 1 1 13.905636 28.052391 43.461167
592 1 1 13.922505 28.111314 43.086143
593 1 1 14.287937 28.081769 42.986208
594 1 1 14.422753 27.863430 42.705936
595 1 1 14.197873 27.558259 42.679491
596 1 1 13.873508 27.379741 42.593943
597 1 1 13.514906 27.256231 42.570489
598 1 1 13.272203 27.098681 42.324169
599 1 1 13.255485 26.817342 42.069279
600 1 1 13.502112 26.900861 41.792513
601 1 1 13.592259 27.254902 41.687971
602 1 1 13.761378 27.500852 41.452796
603 1 1 13.999609 27.456844 41.160035
604 1 1 14.364630 27.353702 41.137202
605 1 1 14.457378 27.063307 40.910336
606 1 1 14.534800 26.808783 40.638999
607 1 1 14.739820 26.532355 40.800102
608 1 1 15.057764 26.390955 40.647401
609 1 1 15.118511 26.499785 40.288422
610 1 1 14.784469 26.477708 40.108619
611 1 1 14.588989 26.597946 39.805750
612 1 1 14.441606 26.942301 39.869765
613 1 1 14.064113 26.918424 39.906227
614 1 1 13.698623 26.899939 39.803880
615 1 1 13.458670 26.609684 39.753136
616 1 1 13.616846 26.276154 39.843344
617 1 1 13.793206 25.957420 39.951537
618 1 1 14.165051 25.892119 39.994749
619 1 1 14.292992 25.917752 40.351644
620 1 1 14.586570 25.884286 40.590584
621 1 1 14.746662 25.639636 40.833312
622 1 1 14.931450 25.388566 40.616017
623 1 1 14.964890 25.517485 40.260121
624 1 1 15.146429 25.842360 40.183308
625 1 1 15.197948 26.019673 39.851186
626 1 1 15.573442 26.039694 39.796381
627 1 1 15.783823 26.293845 39.607841
628 1 1 15.824595 26.578206 39.359091
629 1 1 15.928854 26.894717 39.176469
630 1 1 16.166920 27.190762 39.167442
631 1 1 16.016776 27.523211 39.060981
632 1 1 16.299956 27.742823 38.934571
633 1 1 16.330690 27.733130 38.555940
634 1 1 16.699158 27.681522 38.478685
635 1 1 16.985706 27.768997 38.712433
636 1 1 17.172802 27.569279 38.976076
637 1 1 17.468807 27.416188 39.158680
638 1 1 17.724551 27.136153 39.182673
639 1 1 17.668026 26.761646 39.213481
640 1 1 17.821903 26.532249 38.952523
641 1 1 17.963089 26.331102 38.662684
642 1 1 18.052592 26.533888 38.354031
643 1 1 18.095829 26.590138 37.980713
644 1 1 17.977294 26.942623 37.902587
645 1 1 18.153366 27.222659 37.715562
646 1 1 18.061911 27.355635 37.371537
647 1 1 18.299489 27.552971 37.150143
648 1 1 18.679348 27.544174 37.144656
649 1 1 18.912673 27.753115 37.359837
650 1 1 18.864986 28.125865 37.416258
651 1 1 18.821814 28.362503 37.710432
652 1 1 18.982862 28.411204 38.051155
653 1 1 19.276594 28.211322 38.185945
654 1 1 19.507780 28.457253 38.360503
655 1 1 19.716215 28.635689 38.097605
656 1 1 19.976814 28.381162 37.989419
657 1 1 20.007940 28.238333 37.638661
658 1 1 20.012637 27.858599 37.652096
659 1 1 20.298593 27.620197 37.728212
660 1 1 20.302438 27.303843 37.517723
661 1 1 20.404657 27.004197 37.307571
662 1 1 20.479648 26.788260 37.004013
663 1 1 20.843868 26.809009 36.897651
664 1 1 20.961541 26.497782 36.714099
665 1 1 21.199289 26.343858 36.460755
666 1 1 21.107148 25.975611 36.443323
667 1 1 20.837553 25.906475 36.184598
668 1 1 20.957575 25.697174 35.891020
669 1 1 20.966324 25.918019 35.581907
670 1 1 21.052602 25.845496 35.219007
671 1 1 20.813693 26.004616 34.970002
672 1 1 20.700854 26.301982 34.762058
673 1 1 20.790442 26.522848 34.466098
674 1 1 20.984370 26.819670 34.329391
675 1 1 20.870341 27.160723 34.206591
676 1 1 20.581627 27.407625 34.215726
677 1 1 20.306521 27.641130 34.334857
678 1 1 20.162309 27.933523 34.530073
679 1 1 20.080867 28.282464 34.656593
680 1 1 19.765417 28.457833 34.537693
681 1 1 19.452689 28.662487 34.606381
682 1 1 19.272787 28.766180 34.288132
683 1 1 18.932354 28.803372 34.123444
684 1 1 18.591108 28.652802 34.050781
685 1 1 18.443523 28.309358 33.982478
686 1 1 18.182682 28.045266 34.063825
687 1 1 17.921846 28.131389 34.326403
688 1 1 17.611706 27.944958 34.442404
689 1 1 17.394687 27.800268 34.718751
690 1 1 17.148710 27.796133 35.008368
691 1 1 17.263960 27.626551 35.328305
692 1 1 17.110048 27.426495 35.612362
693 1 1 17.048655 27.568336 35.959511
694 1 1 17.105400 27.581818 36.335008
695 1 1 17.302741 27.768036 36.601052
696 1 1 17.651409 27.868309 36.488022
697 1 1 18.015062 27.771621 36.435029
698 1 1 18.281872 27.943787 36.643765
699 1 1 18.371922 28.312849 36.634559
700 1 1 18.528283 28.658760 36.651779
701 1 1 18.607014 28.945296 36.414928
702 1 1 18.524797 29.167313 36.117692
703 1 1 18.544011 29.386699 35.808014
704 1 1 18.872551 29.450097 35.627896
705 1 1 19.148893 29.208045 35.725089
706 1 1 19.186169 28.992891 36.036086
707 1 1 19.199952 28.616617 36.087347
708 1 1 19.122047 28.261618 35.976412
709 1 1 18.883480 28.183651 35.691093
710 1 1 18.716314 28.486696 35.534188
711 1 1 18.727947 28.463264 35.155090
712 1 1 18.686282 28.124420 34.988210
713 1 1 18.598805 27.828430 34.766541
714 1 1 18.843906 27.645977 34.540629
715 1 1 18.923856 27.296999 34.413262
716 1 1 19.295655 27.308429 34.335579
717 1 1 19.548759 27.367686 34.058401
718 1 1 19.895949 27.364207 33.903977
719 1 1 20.216218 27.293544 33.712054
720 1 1 20.206347 26.974201 33.506330
721 1 1 20.213734 26.728392 33.216634
722 1 1 20.327002 26.921463 32.909561
723 1 1 20.527040 27.210412 32.765016
724 1 1 20.774368 27.226097 32.476948
725 1 1 20.903739 27.266230 32.121909
726 1 1 20.839387 27.003867 31.854656
727 1 1 20.626810 26.690132 31.826705
728 1 1 20.265791 26.808146 31.838462
729 1 1 19.992443 26.828377 32.101657
730 1 1 19.667126 26.957880 32.249298
731 1 1 19.372443 26.773612 32.095652
732 1 1 19.025928 26.712005 32.238941
733 1 1 18.759695 26.690414 32.509226
734 1 1 18.431182 26.798222 32.351566
735 1 1 18.172117 26.520263 32.356458
736 1 1 17.977974 26.216595 32.476851
737 1 1 17.641629 26.187406 32.302437
738 1 1 17.455093 26.094122 31.984786
739 1 1 17.694704 25.927917 31.741142
740 1 1 18.007040 25.746656 31.859423
741 1 1 18.184651 25.493149 31.638994
742 1 1 17.996798 25.240790 31.425860
743 1 1 17.638648 25.150496 31.515166
744 1 1 17.578695 24.885877 31.781216
745 1 1 17.346948 24.956582 32.073952
746 1 1 17.033725 25.164626 32.019101
747 1 1 16.670645 25.082952 31.942275
748 1 1 16.396104 25.049750 31.681651
749 1 1 16.474846 24.917454 31.334236
750 1 1 16.307215 24.880009 30.995270
751 1 1 16.463499 25.082940 30.714566
752 1 1 16.620092 25.113591 30.369691
753 1 1 16.350750 25.086762 30.102978
754 1 1 16.229799 24.813819 29.867875
755 1 1 16.072745 24.509511 30.032588
756 1 1 15.995949 24.322733 30.354483
757 1 1 15.860725 23.990320 30.479446
758 1 1 15.595213 23.736356 30.382461
759 1 1 15.227196 23.828583 30.403855
760 1 1 15.000326 23.618166 30.624433
761 1 1 14.660629 23.448030 30.632158
762 1 1 14.304429 23.324338 30.585017
763 1 1 13.954846 23.339600 30.733200
764 1 1 13.576191 23.371081 30.738625
765 1 1 13.365137 23.156183 30.506946
766 1 1 13.472957 22.941210 30.212733
767 1 1 13.782923 22.825199 30.026017
768 1 1 13.791578 22.808816 29.646469
769 1 1 13.546247 22.744874 29.363407
770 1 1 13.388724 23.069497 29.244215
771 1 1 13.128488 23.296285 29.403100
772 1 1 13.300196 23.444891 29.707784
773 1 1 13.366842 23.788888 29.854836
774 1 1 13.209122 24.045984 29.623695
775 1 1 13.322582 24.177861 29.285856
776 1 1 13.232781 24.351693 28.960098
777 1 1 13.213203 24.731173 28.956698
778 1 1 13.454306 24.981884 28.803683
779 1 1 13.809410 25.066308 28.697974
780 1 1 14.001392 25.268193 28.956403
781 1 1 14.217168 25.034095 29.163861
782 1 1 14.108901 24.682412 29.069004
783 1 1 14.218717 24.362032 29.241332
784 1 1 14.039543 24.049939 29.119289
785 1 1 14.124862 23.683859 29.175022
786 1 1 13.879949 23.534531 29.424258
787 1 1 13.974932 23.457603 29.784064
788 1 1 14.278383 23.240323 29.855528
789 1 1 14.651558 23.310475 29.870316
790 1 1 14.996849 23.443080 29.957438
791 1 1 15.084557 23.677828 29.671779
792 1 1 15.434582 23.823546 29.646308
793 1 1 15.779593 23.971700 29.704767
794 1 1 15.970995 24.194265 29.463457
795 1 1 15.789327 24.489491 29.307771
796 1 1 15.452977 24.656108 29.248547
797 1 1 15.237036 24.662833 28.935938
798 1 1 15.244034 24.992177 28.746509
799 1 1 15.240553 25.195833 28.425709