LAMMPS data file for polymer system

27000 atoms
26940 bonds

1 atom types
1 bond types

0.0 43.75506318037897 xlo xhi
0.0 43.75506318037897 ylo yhi
0.0 43.75506318037897 zlo zhi

Masses

1 5.65487

Atoms

1 1 1 32.567149 27.593565 43.544837
2 1 1 32.553775 27.971635 43.580675
3 1 1 32.600386 28.229032 43.305041
4 1 1 32.764457 28.480938 43.072611
5 1 1 32.724654 28.858288 43.093162
6 1 1 32.771665 29.102055 43.380856
7 1 1 33.001091 29.121701 43.683143
8 1 1 33.111079 28.774597 0.036806
9 1 1 33.465984 28.907192 0.066145
10 1 1 33.822745 28.791335 0.126964
11 1 1 34.126850 28.566101 0.092469
12 1 1 34.140131 28.840372 43.584855
13 1 1 34.075763 28.826817 43.210592
14 1 1 33.789641 28.917363 42.977491
15 1 1 33.561464 28.893452 42.674566
16 1 1 33.225301 29.068625 42.647938
17 1 1 32.940388 29.218147 42.445780
18 1 1 32.577062 29.216261 42.334466
19 1 1 32.309329 29.105767 42.580454
20 1 1 32.315953 29.271429 42.922378
21 1 1 32.481954 29.610009 42.969356
22 1 1 32.822661 29.747767 43.066007
23 1 1 32.784094 30.018528 43.329827
24 1 1 32.751407 30.395525 43.295122
25 1 1 32.920853 30.707246 43.159041
26 1 1 33.216893 30.668152 42.924025
27 1 1 33.543064 30.736012 42.741248
28 1 1 33.833570 30.541429 42.890055
29 1 1 33.958353 30.662864 43.227817
30 1 1 33.950561 30.584644 43.599597
31 1 1 34.273453 30.540114 0.039875
32 1 1 34.634698 30.430880 43.750556
33 1 1 34.923259 30.202921 43.654811
34 1 1 35.221340 30.409177 0.013792
35 1 1 35.163381 30.784561 0.002502
36 1 1 35.356697 30.654544 43.457358
37 1 1 35.140398 30.814508 43.725735
38 1 1 34.928011 31.128905 43.746865
39 1 1 34.583564 31.289382 43.748610
40 1 1 34.214519 31.355062 0.055933
41 1 1 34.404906 31.642215 0.216232
42 1 1 34.311048 31.930101 0.445824
43 1 1 34.233652 32.270300 0.295244
44 1 1 34.182012 32.283757 43.674073
45 1 1 34.111646 31.915841 43.610146
46 1 1 33.836146 31.654129 43.607592
47 1 1 33.876048 31.276658 43.589615
48 1 1 33.569840 31.349512 0.047458
49 1 1 33.246978 31.324463 43.603694
50 1 1 33.279015 31.188404 43.250336
51 1 1 33.192727 31.465956 43.005552
52 1 1 33.020784 31.361221 42.683270
53 1 1 32.650887 31.327724 42.602928
54 1 1 32.402307 31.056520 42.507763
55 1 1 32.072915 31.150773 42.672132
56 1 1 32.041768 31.393290 42.963019
57 1 1 31.927986 31.745129 43.050558
58 1 1 31.618054 31.820510 43.257101
59 1 1 31.238510 31.805939 43.245504
60 1 1 31.088388 31.775843 43.593293
61 1 1 31.116030 31.698490 0.209246
62 1 1 31.247527 31.913852 0.493372
63 1 1 31.182171 32.189476 0.746670
64 1 1 31.377057 32.484019 0.886896
65 1 1 31.724703 32.508885 0.735488
66 1 1 31.813744 32.714536 0.428601
67 1 1 31.717075 32.858818 0.090611
68 1 1 31.654610 32.523165 43.678836
69 1 1 31.306964 32.377758 43.629853
70 1 1 31.017496 32.533392 0.065543
71 1 1 30.694822 32.353949 0.155441
72 1 1 30.680768 32.573736 43.600833
73 1 1 30.590006 32.216394 43.508806
74 1 1 30.474230 31.873773 43.392157
75 1 1 30.137825 31.777180 43.540149
76 1 1 30.257217 31.818652 0.143451
77 1 1 30.136267 31.465343 0.213764
78 1 1 30.265722 31.296861 0.528812
79 1 1 30.577324 31.079794 0.515179
80 1 1 30.853849 30.821732 0.478601
81 1 1 30.949466 30.550615 0.230099
82 1 1 31.065222 30.196893 0.153413
83 1 1 31.395622 30.011078 0.180038
84 1 1 31.243035 30.093358 43.596949
85 1 1 31.085137 29.917536 43.299367
86 1 1 31.123313 29.696091 42.992928
87 1 1 30.927465 29.851510 42.706767
88 1 1 30.606009 30.052160 42.735153
89 1 1 30.592371 30.312548 43.011581
90 1 1 30.633567 30.312602 43.389341
91 1 1 30.464656 30.621507 43.532333
92 1 1 30.351035 30.582853 0.137819
93 1 1 30.244130 30.219696 0.104819
94 1 1 30.400536 29.989422 0.363491
95 1 1 30.235977 30.002642 0.705756
96 1 1 30.033912 30.056157 1.023098
97 1 1 29.835849 30.376075 0.969958
98 1 1 29.511013 30.300816 0.787701
99 1 1 29.238615 30.081425 0.936250
100 1 1 28.871505 30.099894 0.839868
101 1 1 28.744156 29.766382 0.709667
102 1 1 28.628692 29.406863 0.667074
103 1 1 28.525272 29.245254 0.339070
104 1 1 28.432674 28.930442 0.147447
105 1 1 28.357753 28.597640 0.314865
106 1 1 28.385027 28.233549 0.209536
107 1 1 28.297271 27.942037 0.436956
108 1 1 28.373035 27.670395 0.691653
109 1 1 28.201614 27.420227 0.920630
110 1 1 27.842241 27.517393 0.996851
111 1 1 27.670983 27.788990 1.200089
112 1 1 27.708697 28.164820 1.241673
113 1 1 27.549800 28.411318 1.483315
114 1 1 27.555279 28.746974 1.661374
115 1 1 27.233677 28.894687 1.799767
116 1 1 26.916456 28.968200 1.995642
117 1 1 26.657042 28.858383 2.250680
118 1 1 26.333221 28.839822 2.448658
119 1 1 26.150601 29.101506 2.654988
120 1 1 26.093316 29.093127 3.030552
121 1 1 26.074894 28.827058 3.301233
122 1 1 26.407040 28.743853 3.466023
123 1 1 26.708390 28.703219 3.693921
124 1 1 26.968060 28.596325 3.949938
125 1 1 27.217231 28.870479 4.034515
126 1 1 27.553644 28.773744 3.886636
127 1 1 27.854059 28.869307 3.674460
128 1 1 27.825118 28.649571 3.365788
129 1 1 27.489782 28.691108 3.191936
130 1 1 27.383887 28.998781 2.995661
131 1 1 27.133230 28.916562 2.722145
132 1 1 27.298204 28.724948 2.438478
133 1 1 27.446100 28.444472 2.229050
134 1 1 27.476891 28.068023 2.187359
135 1 1 27.186828 27.832453 2.118288
136 1 1 27.086639 27.622120 2.418492
137 1 1 27.171301 27.261486 2.333784
138 1 1 27.465092 27.117864 2.527327
139 1 1 27.705632 26.932350 2.755637
140 1 1 27.705396 26.552479 2.745729
141 1 1 27.726158 26.297051 3.026310
142 1 1 27.704495 26.120077 3.361885
143 1 1 27.805642 25.766004 3.455702
144 1 1 27.484460 25.603140 3.577018
145 1 1 27.533370 25.266636 3.746643
146 1 1 27.605474 24.944410 3.934716
147 1 1 27.290201 24.858201 4.128549
148 1 1 26.993352 25.093476 4.098121
149 1 1 26.749954 25.161112 3.814249
150 1 1 26.595461 24.905222 3.579616
151 1 1 26.641825 24.777154 3.224864
152 1 1 26.364217 24.623246 3.015948
153 1 1 26.023412 24.785043 3.061482
154 1 1 25.665249 24.733208 2.945582
155 1 1 25.508632 24.916090 2.651600
156 1 1 25.554144 24.989845 2.281615
157 1 1 25.522921 24.897678 1.914286
158 1 1 25.204702 24.707975 1.829729
159 1 1 24.978774 24.654963 1.528820
160 1 1 24.888664 24.320361 1.372865
161 1 1 24.605253 24.079803 1.294062
162 1 1 24.241816 24.018943 1.201276
163 1 1 24.074048 23.724372 1.029573
164 1 1 23.941604 23.402502 1.182079
165 1 1 23.980521 23.099817 1.408502
166 1 1 24.177081 22.774933 1.393839
167 1 1 24.395237 22.518089 1.569449
168 1 1 24.614977 22.261765 1.743840
169 1 1 24.514909 21.964665 1.958591
170 1 1 24.323198 21.923990 2.284155
171 1 1 24.183644 21.665947 2.525688
172 1 1 23.949843 21.787663 2.799408
173 1 1 23.904017 21.795429 3.176555
174 1 1 23.932478 22.102145 3.399076
175 1 1 23.886820 22.010476 3.765016
176 1 1 23.662181 21.868096 4.036430
177 1 1 23.484327 22.025418 4.333107
178 1 1 23.118323 21.929099 4.367222
179 1 1 22.852113 21.771222 4.146751
180 1 1 22.602778 22.020134 4.004363
181 1 1 22.287204 21.977300 3.797051
182 1 1 22.007750 22.117002 3.580744
183 1 1 21.720294 22.364168 3.606780
184 1 1 21.487597 22.357845 3.306426
185 1 1 21.323103 22.207235 2.998760
186 1 1 21.294517 22.253095 2.622622
187 1 1 21.332283 21.947360 2.400137
188 1 1 21.404230 21.774824 2.069297
189 1 1 21.581029 21.467862 1.931762
190 1 1 21.886503 21.447358 1.706672
191 1 1 22.043515 21.381640 1.366925
192 1 1 22.198339 21.034719 1.358255
193 1 1 22.285371 20.897768 1.701869
194 1 1 22.209403 20.656602 1.985537
195 1 1 22.187721 20.277441 1.972624
196 1 1 22.497530 20.108223 1.831967
197 1 1 22.417293 19.757640 1.709274
198 1 1 22.212021 19.618325 1.421430
199 1 1 22.055653 19.906133 1.228775
200 1 1 21.777334 20.040697 1.007797
201 1 1 21.768837 19.849469 0.679530
202 1 1 21.925301 19.604757 0.434509
203 1 1 21.902476 19.341928 0.161013
204 1 1 21.908302 18.973664 0.254542
205 1 1 21.654907 18.696347 0.197218
206 1 1 21.832874 18.633824 43.622405
207 1 1 21.540514 18.871510 43.573103
208 1 1 21.276226 19.144523 43.569120
209 1 1 21.067871 19.059408 0.120233
210 1 1 21.026919 18.710734 0.265661
211 1 1 20.714214 18.657664 0.474943
212 1 1 20.398995 18.598785 0.271054
213 1 1 20.248074 18.918114 0.130869
214 1 1 19.980216 18.851693 43.624704
215 1 1 19.982554 18.476071 43.682169
216 1 1 19.915465 18.102071 43.677329
217 1 1 20.104480 17.775342 43.721166
218 1 1 20.064800 17.753031 0.343366
219 1 1 19.917261 17.996268 0.595294
220 1 1 19.741400 18.305952 0.462746
221 1 1 19.435700 18.502043 0.350962
222 1 1 19.147121 18.735236 0.433077
223 1 1 18.986301 19.063269 0.328523
224 1 1 18.627430 19.010655 0.215192
225 1 1 18.475084 18.664741 0.176025
226 1 1 18.651355 18.345444 0.282692
227 1 1 18.630677 18.073568 0.547373
228 1 1 18.826185 17.934788 0.842189
229 1 1 19.062481 18.142741 1.055074
230 1 1 19.345944 18.262513 1.278017
231 1 1 19.282218 18.531792 1.538455
232 1 1 19.254459 18.397455 1.892832
233 1 1 19.371314 18.511152 2.236077
234 1 1 19.567708 18.657206 2.526763
235 1 1 19.584755 18.433885 2.833744
236 1 1 19.358730 18.284905 3.100423
237 1 1 19.277383 18.483472 3.414037
238 1 1 19.185422 18.519803 3.780947
239 1 1 19.199594 18.447682 4.153771
240 1 1 19.416838 18.318979 4.437744
241 1 1 19.230825 18.114213 4.698262
242 1 1 19.196160 17.985965 5.054283
243 1 1 19.168062 18.294871 5.273799
244 1 1 18.988760 18.470699 5.558993
245 1 1 18.988386 18.743342 5.823692
246 1 1 19.235128 18.976732 5.994125
247 1 1 19.360619 18.874894 6.338046
248 1 1 19.581406 18.706374 6.597379
249 1 1 19.753000 18.392677 6.468732
250 1 1 20.042709 18.213505 6.637154
251 1 1 19.949803 18.094901 6.986012
252 1 1 19.933161 17.715358 6.994377
253 1 1 19.820710 17.510386 6.694809
254 1 1 19.985342 17.168850 6.669329
255 1 1 20.294604 17.105567 6.457782
256 1 1 20.606978 16.939724 6.596774
257 1 1 20.795594 17.042123 6.910364
258 1 1 20.617797 16.975780 7.239586
259 1 1 20.303478 17.015589 7.449393
260 1 1 20.283848 17.041123 7.828026
261 1 1 20.451808 17.353985 7.963329
262 1 1 20.381738 17.727452 7.959757
263 1 1 20.528350 18.068309 7.877774
264 1 1 20.298320 18.331596 7.728891
265 1 1 20.008404 18.416484 7.498364
266 1 1 19.763430 18.703464 7.543417
267 1 1 19.734461 18.765915 7.917129
268 1 1 19.879166 19.059850 8.109646
269 1 1 20.086464 19.106208 8.424731
270 1 1 20.271107 19.332056 8.668246
271 1 1 20.284207 19.138529 8.995012
272 1 1 20.145788 19.338987 9.286658
273 1 1 20.241702 19.699221 9.360360
274 1 1 19.984023 19.967541 9.282863
275 1 1 19.606328 19.943387 9.316964
276 1 1 19.334235 19.678831 9.297593
277 1 1 19.044081 19.662310 9.542415
278 1 1 18.681546 19.620840 9.436355
279 1 1 18.397694 19.600872 9.184503
280 1 1 18.153593 19.311181 9.154602
281 1 1 18.182727 18.944257 9.249036
282 1 1 18.015925 18.865811 9.581336
283 1 1 17.816775 18.741602 9.880186
284 1 1 17.632307 18.616640 10.188011
285 1 1 17.513182 18.807350 10.494342
286 1 1 17.345520 19.128534 10.608931
287 1 1 16.985269 19.213696 10.694762
288 1 1 16.928760 19.571354 10.810032
289 1 1 16.649503 19.739400 11.005419
290 1 1 16.550222 20.104537 10.970509
291 1 1 16.422926 20.427791 11.124465
292 1 1 16.650340 20.675202 11.301865
293 1 1 16.604766 21.033907 11.418715
294 1 1 16.689366 21.401340 11.371434
295 1 1 16.796026 21.762830 11.322971
296 1 1 16.683444 22.114481 11.233154
297 1 1 16.688224 22.387338 10.968719
298 1 1 16.436922 22.461447 10.693482
299 1 1 16.125070 22.636875 10.821440
300 1 1 15.755350 22.662718 10.737539
301 1 1 15.481038 22.444659 10.590560
302 1 1 15.193101 22.540823 10.361988
303 1 1 14.977690 22.819370 10.504851
304 1 1 14.821902 23.158075 10.431306
305 1 1 14.960761 23.430106 10.657397
306 1 1 15.227439 23.543352 10.903279
307 1 1 15.483400 23.807253 10.807152
308 1 1 15.620726 24.145914 10.702989
309 1 1 15.907406 24.320072 10.881550
310 1 1 15.768779 24.657418 10.988228
311 1 1 15.601500 24.893139 10.741542
312 1 1 15.424219 25.229217 10.746268
313 1 1 15.362867 25.506786 10.998443
314 1 1 15.042806 25.710352 10.975612
315 1 1 14.824758 26.017072 10.922899
316 1 1 14.646714 26.348390 10.868782
317 1 1 14.330383 26.533599 10.968941
318 1 1 13.975583 26.666502 10.998159
319 1 1 13.874659 27.032821 11.003180
320 1 1 14.096955 27.317314 11.121707
321 1 1 14.438205 27.462284 11.038447
322 1 1 14.725485 27.366590 11.268039
323 1 1 14.647864 27.028008 11.422107
324 1 1 14.944067 26.801734 11.348186
325 1 1 15.303344 26.923391 11.325392
326 1 1 15.549332 26.642136 11.394569
327 1 1 15.874917 26.462247 11.472250
328 1 1 16.106838 26.162008 11.493915
329 1 1 16.382329 25.961254 11.661850
330 1 1 16.762055 25.968161 11.674520
331 1 1 17.081143 26.042880 11.482167
332 1 1 17.372306 25.835347 11.353503
333 1 1 17.696595 25.673469 11.467661
334 1 1 17.825436 25.696052 11.824438
335 1 1 17.575197 25.813002 12.085404
336 1 1 17.203465 25.734199 12.087778
337 1 1 17.079045 25.434840 11.889525
338 1 1 17.127355 25.069309 11.981465
339 1 1 17.419683 24.974510 12.204976
340 1 1 17.789747 24.891747 12.180408
341 1 1 17.987488 24.672465 11.941215
342 1 1 18.030849 24.568456 11.578307
343 1 1 18.101317 24.655954 11.215294
344 1 1 18.094771 24.708740 10.839035
345 1 1 18.293515 24.460899 10.630526
346 1 1 18.284980 24.089069 10.552621
347 1 1 18.014832 23.844689 10.660782
348 1 1 17.646351 23.937349 10.666739
349 1 1 17.397782 24.003377 10.387000
350 1 1 17.094986 23.793497 10.293913
351 1 1 16.761849 23.674872 10.154817
352 1 1 16.629722 23.321186 10.197813
353 1 1 16.898100 23.133612 10.390659
354 1 1 17.070452 23.227884 10.715940
355 1 1 17.316576 23.066973 10.956628
356 1 1 17.536681 22.797054 10.804651
357 1 1 17.872510 22.756812 10.631446
358 1 1 18.132865 22.618455 10.871180
359 1 1 18.433011 22.850320 10.847706
360 1 1 18.627586 23.168935 10.918592
361 1 1 18.412919 23.478757 10.966847
362 1 1 18.205974 23.673130 11.219420
363 1 1 17.980927 23.783311 11.505101
364 1 1 17.839523 23.950699 11.815562
365 1 1 17.859147 23.711515 12.110191
366 1 1 18.107333 23.440594 12.207175
367 1 1 17.986289 23.229330 12.498921
368 1 1 17.973469 23.227785 12.878701
369 1 1 17.682950 23.012039 12.994688
370 1 1 17.470814 22.879066 12.708826
371 1 1 17.114569 22.773187 12.788066
372 1 1 16.789873 22.970295 12.777079
373 1 1 16.694640 23.257752 13.006644
374 1 1 16.432940 23.529041 13.054756
375 1 1 16.108678 23.580380 13.246116
376 1 1 15.810847 23.403962 13.089356
377 1 1 15.694224 23.060897 12.974876
378 1 1 15.357938 23.019340 12.802875
379 1 1 14.995134 22.956390 12.709012
380 1 1 14.624522 22.969456 12.791935
381 1 1 14.578611 22.920759 13.165995
382 1 1 14.779258 23.059206 13.457496
383 1 1 14.916088 23.217555 13.774676
384 1 1 14.779271 23.037113 14.079835
385 1 1 14.984431 22.902655 14.370060
386 1 1 15.331775 22.925802 14.522428
387 1 1 15.621882 23.132510 14.390105
388 1 1 15.908979 23.379440 14.421746
389 1 1 15.760954 23.720992 14.345389
390 1 1 15.485903 23.966725 14.436831
391 1 1 15.555549 24.308575 14.286206
392 1 1 15.604637 24.290521 13.909822
393 1 1 15.758918 24.587931 13.730532
394 1 1 15.822732 24.732646 13.385011
395 1 1 15.974903 24.920344 13.091730
396 1 1 15.948839 25.028540 12.728392
397 1 1 16.091931 25.378781 12.692948
398 1 1 16.387467 25.463903 12.469760
399 1 1 16.497101 25.371522 12.117842
400 1 1 16.366112 25.285271 11.771717
401 1 1 16.253867 25.071346 11.478396
402 1 1 16.500677 24.808425 11.358573
403 1 1 16.635415 24.534272 11.132551
404 1 1 16.729118 24.188157 11.006758
405 1 1 17.057623 24.009011 10.940493
406 1 1 17.140104 23.695395 11.138589
407 1 1 16.831982 23.556080 11.311944
408 1 1 16.466799 23.638549 11.246827
409 1 1 16.114893 23.496407 11.227924
410 1 1 16.087948 23.124715 11.302213
411 1 1 15.776523 22.908492 11.327959
412 1 1 15.476525 23.031341 11.129694
413 1 1 15.113976 22.969760 11.225434
414 1 1 14.735646 23.001202 11.208763
415 1 1 14.547243 23.033276 11.537207
416 1 1 14.777241 23.060778 11.838445
417 1 1 15.091312 23.107691 12.047152
418 1 1 15.287468 23.416549 11.944538
419 1 1 15.210635 23.679884 12.207504
420 1 1 15.128674 23.563817 12.559939
421 1 1 14.968824 23.825688 12.784152
422 1 1 14.667514 24.038618 12.875110
423 1 1 14.532383 24.262997 13.150416
424 1 1 14.279426 24.470918 13.343241
425 1 1 14.420172 24.690016 13.619984
426 1 1 14.578124 24.992525 13.787136
427 1 1 14.922443 25.111814 13.679367
428 1 1 15.062394 25.404896 13.876639
429 1 1 14.789259 25.634223 14.007812
430 1 1 14.821890 25.875193 14.299820
431 1 1 14.652612 26.133268 14.521500
432 1 1 14.286950 26.120483 14.624106
433 1 1 14.026918 26.328850 14.806771
434 1 1 13.734844 26.134516 14.952808
435 1 1 13.659114 25.807217 14.775211
436 1 1 13.505677 25.486669 14.640652
437 1 1 13.704018 25.395623 14.329571
438 1 1 13.509692 25.133755 14.134473
439 1 1 13.480404 24.768928 14.236665
440 1 1 13.549363 24.395693 14.218206
441 1 1 13.836203 24.289687 14.443784
442 1 1 13.886987 24.416899 14.798239
443 1 1 13.882266 24.792041 14.858622
444 1 1 13.961135 24.946666 15.196661
445 1 1 14.214009 25.053386 15.459465
446 1 1 14.179944 25.120119 15.832005
447 1 1 13.941397 24.875312 15.998032
448 1 1 14.036047 24.549783 16.169707
449 1 1 14.391977 24.453466 16.077853
450 1 1 14.634504 24.633029 15.846903
451 1 1 4.328156 33.791083 30.111419
452 1 1 4.450165 34.110299 29.945242
453 1 1 4.712428 34.372148 30.029225
454 1 1 4.772411 34.351801 30.403909
455 1 1 4.900268 34.608042 30.653695
456 1 1 5.178082 34.847612 30.752822
457 1 1 5.351555 34.809032 31.088707
458 1 1 5.652193 34.578575 31.118811
459 1 1 5.892729 34.509768 31.404832
460 1 1 6.196609 34.483551 31.631481
461 1 1 6.566736 34.488348 31.545554
462 1 1 6.741392 34.410716 31.217121
463 1 1 6.790142 34.033862 31.214951
464 1 1 7.018473 33.733644 31.168758
465 1 1 6.955538 33.429605 31.387846
466 1 1 6.897978 33.061718 31.312045
467 1 1 7.245712 32.908561 31.316947
468 1 1 7.553173 33.066215 31.475103
469 1 1 7.779629 33.175405 31.190155
470 1 1 7.751338 32.895584 30.934617
471 1 1 7.633841 32.695791 30.633491
472 1 1 7.914794 32.644314 30.382860
473 1 1 8.086846 32.898417 30.158739
474 1 1 8.214456 32.912750 29.801094
475 1 1 8.320439 32.835589 29.444423
476 1 1 8.527107 33.034920 29.195515
477 1 1 8.658941 33.158036 28.861057
478 1 1 8.523579 33.253874 28.519162
479 1 1 8.472237 33.404292 28.173997
480 1 1 8.263010 33.526557 27.881294
481 1 1 8.124319 33.808498 27.667579
482 1 1 7.877563 33.725210 27.390858
483 1 1 7.722205 33.381499 27.436970
484 1 1 7.444584 33.122117 27.443900
485 1 1 7.072131 33.051255 27.418257
486 1 1 6.919223 33.140253 27.754558
487 1 1 6.813298 33.036145 28.104331
488 1 1 6.704292 32.702161 28.249150
489 1 1 6.512239 32.581392 28.553995
490 1 1 6.329935 32.674345 28.874190
491 1 1 6.153584 33.006032 28.816885
492 1 1 5.818318 33.050144 28.643534
493 1 1 5.723974 33.298735 28.372053
494 1 1 5.872627 33.360965 28.027917
495 1 1 5.739225 33.402268 27.674508
496 1 1 5.888720 33.690229 27.476696
497 1 1 5.962727 34.043864 27.594446
498 1 1 6.124644 34.344810 27.428271
499 1 1 5.996777 34.416609 27.077707
500 1 1 5.807563 34.431667 26.748509
501 1 1 5.597844 34.747615 26.772903
502 1 1 5.518084 34.939287 27.091180
503 1 1 5.145096 34.974402 27.154796
504 1 1 4.820420 35.138525 27.045028
505 1 1 4.531187 34.939190 26.900080
506 1 1 4.621185 34.813548 26.552928
507 1 1 4.695768 34.512861 26.332873
508 1 1 4.680445 34.168700 26.493243
509 1 1 4.846214 33.826763 26.493293
510 1 1 5.104522 33.842616 26.215039
511 1 1 5.241565 34.102685 25.974241
512 1 1 5.572067 34.171808 25.799912
513 1 1 5.943115 34.196897 25.877976
514 1 1 6.275619 34.019100 25.925188
515 1 1 6.591893 34.223971 25.974162
516 1 1 6.873386 34.478915 25.987021
517 1 1 6.791753 34.841959 26.064060
518 1 1 6.876596 35.173800 25.899490
519 1 1 7.028627 35.256224 25.561122
520 1 1 7.252431 35.122012 25.284899
521 1 1 7.577277 34.936356 25.218513
522 1 1 7.598525 34.644614 24.975955
523 1 1 7.582763 34.267994 25.024011
524 1 1 7.325934 34.009654 24.915848
525 1 1 7.312755 33.632509 24.871259
526 1 1 6.995561 33.424239 24.891551
527 1 1 6.876728 33.081682 24.777828
528 1 1 6.517217 33.093741 24.655326
529 1 1 6.292569 33.204938 24.940928
530 1 1 6.359108 33.289056 25.305478
531 1 1 6.169555 33.428249 25.603966
532 1 1 6.367014 33.405137 25.927811
533 1 1 6.519243 33.107837 26.109026
534 1 1 6.701258 32.798192 25.984967
535 1 1 6.764106 32.699491 25.623431
536 1 1 6.923299 32.436406 25.400173
537 1 1 7.173910 32.165643 25.491176
538 1 1 7.064890 31.802947 25.522272
539 1 1 6.762635 31.685451 25.720354
540 1 1 6.427611 31.848674 25.794633
541 1 1 6.282309 31.679776 26.102465
542 1 1 6.244149 31.321478 26.223159
543 1 1 6.138866 31.288745 26.586813
544 1 1 6.405794 31.249868 26.854465
545 1 1 6.687404 31.498053 26.913625
546 1 1 6.759236 31.743935 26.632944
547 1 1 6.957849 31.893184 26.345406
548 1 1 7.288065 32.006495 26.195345
549 1 1 7.451100 32.311915 26.351990
550 1 1 7.312248 32.665161 26.333619
551 1 1 7.607306 32.901400 26.294479
552 1 1 7.763962 33.007267 25.964856
553 1 1 7.771470 32.924544 25.594045
554 1 1 7.696931 32.605034 25.402324
555 1 1 7.761652 32.307961 25.174379
556 1 1 7.698382 32.292712 24.799993
557 1 1 7.934534 32.031096 24.657904
558 1 1 7.929440 31.707389 24.458937
559 1 1 7.856699 31.437714 24.716588
560 1 1 7.854717 31.066403 24.797363
561 1 1 7.988902 30.844723 25.075306
562 1 1 8.227127 30.781089 25.364441
563 1 1 8.277251 30.466104 25.571014
564 1 1 8.411482 30.154633 25.399644
565 1 1 8.750536 29.983561 25.412945
566 1 1 8.727309 29.667579 25.622745
567 1 1 8.514799 29.523933 25.903111
568 1 1 8.603045 29.307636 26.202824
569 1 1 8.876605 29.290841 26.466040
570 1 1 9.127909 29.573970 26.433102
571 1 1 9.281558 29.917619 26.485035
572 1 1 9.028672 30.185842 26.392812
573 1 1 8.875963 30.512193 26.272085
574 1 1 9.019954 30.863096 26.248997
575 1 1 9.314731 31.004705 26.055469
576 1 1 9.363995 30.796492 25.741430
577 1 1 9.342534 30.818758 25.362690
578 1 1 9.047814 30.659589 25.183232
579 1 1 8.745951 30.613019 24.957156
580 1 1 8.456285 30.700903 24.727440
581 1 1 8.269557 30.725604 24.397405
582 1 1 8.528474 30.763414 24.121846
583 1 1 8.659757 30.651686 23.783199
584 1 1 8.559532 30.931211 23.546090
585 1 1 8.821284 31.206003 23.565457
586 1 1 9.098635 31.417854 23.715774
587 1 1 9.432887 31.323316 23.561703
588 1 1 9.697914 31.594536 23.537190
589 1 1 9.989092 31.488065 23.317465
590 1 1 10.244654 31.535762 23.040313
591 1 1 10.431410 31.758691 22.795723
592 1 1 10.311335 31.807886 22.438565
593 1 1 10.100085 31.725713 22.133571
594 1 1 9.744386 31.773302 22.008618
595 1 1 9.419266 31.968904 22.029525
596 1 1 9.238551 32.017769 21.698838
597 1 1 9.073423 31.707861 21.553614
598 1 1 9.026091 31.474603 21.849841
599 1 1 8.755155 31.431318 22.112748
600 1 1 8.911046 31.473664 22.456703
601 1 1 8.987750 31.505971 22.827477
602 1 1 9.078036 31.716803 23.130459
603 1 1 8.941508 32.027234 23.301901
604 1 1 8.956208 32.376192 23.451609
605 1 1 8.792523 32.668647 23.630709
606 1 1 8.923206 32.978266 23.453344
607 1 1 9.299919 33.021013 23.479033
608 1 1 9.570771 33.242556 23.627215
609 1 1 9.704433 33.181704 23.977689
610 1 1 9.958763 33.342840 24.209532
611 1 1 9.936747 33.318243 24.588096
612 1 1 9.737987 33.582315 24.775606
613 1 1 9.794391 33.637095 25.147383
614 1 1 9.618870 33.926373 25.320329
615 1 1 9.264493 33.814219 25.399317
616 1 1 9.027620 33.838711 25.695444
617 1 1 9.121823 33.953139 26.045347
618 1 1 9.028129 34.131181 26.367717
619 1 1 8.983160 34.236689 26.729995
620 1 1 9.111635 33.959462 26.955915
621 1 1 9.414679 33.742177 27.029066
622 1 1 9.517185 33.684118 27.390344
623 1 1 9.467799 33.344300 27.553084
624 1 1 9.256739 33.083061 27.730871
625 1 1 9.117790 32.729905 27.750215
626 1 1 8.875133 32.467653 27.620828
627 1 1 8.839310 32.171609 27.856359
628 1 1 8.691802 31.926334 28.106323
629 1 1 8.314580 31.883832 28.123569
630 1 1 8.072968 31.673971 28.328464
631 1 1 7.939158 31.322598 28.383530
632 1 1 7.625708 31.130323 28.479338
633 1 1 7.443826 30.949321 28.759619
634 1 1 7.285744 30.630603 28.893144
635 1 1 7.020872 30.358901 28.872627
636 1 1 7.151213 30.049743 28.694209
637 1 1 7.484184 29.930496 28.555248
638 1 1 7.597380 30.116020 28.243532
639 1 1 7.899007 30.340725 28.189407
640 1 1 7.990507 30.467580 28.535724
641 1 1 8.274199 30.695407 28.645332
642 1 1 8.326604 30.713024 29.021288
643 1 1 8.200813 30.946205 29.293692
644 1 1 8.446446 31.008986 29.576751
645 1 1 8.757715 30.795999 29.530404
646 1 1 8.808681 30.503495 29.767562
647 1 1 8.798683 30.290998 30.082435
648 1 1 9.000229 30.402000 30.384855
649 1 1 8.862943 30.737668 30.498345
650 1 1 8.695027 30.730725 30.839162
651 1 1 8.883300 30.636430 31.155487
652 1 1 8.801980 30.330358 31.365503
653 1 1 8.619636 30.040393 31.530036
654 1 1 8.790972 29.714843 31.434849
655 1 1 8.621640 29.603067 31.113551
656 1 1 8.325816 29.761517 30.935276
657 1 1 7.952688 29.720147 30.994134
658 1 1 7.844246 29.373014 31.104312
659 1 1 7.707494 29.369309 31.458833
660 1 1 7.557076 29.602982 31.718008
661 1 1 7.637560 29.832190 32.010216
662 1 1 7.561600 29.783790 32.379388
663 1 1 7.245807 29.590590 32.465112
664 1 1 6.899112 29.707574 32.567665
665 1 1 6.629857 29.451566 32.487905
666 1 1 6.344670 29.607674 32.291185
667 1 1 6.440027 29.950255 32.157225
668 1 1 6.336834 30.192795 32.430951
669 1 1 6.128093 30.505318 32.487134
670 1 1 6.004858 30.677615 32.171655
671 1 1 5.643666 30.695090 32.054887
672 1 1 5.530292 30.505199 31.745876
673 1 1 5.395752 30.687637 31.440892
674 1 1 5.146042 30.658259 31.155968
675 1 1 4.852359 30.622043 30.917558
676 1 1 4.646051 30.746983 30.623914
677 1 1 4.500162 30.611724 30.300153
678 1 1 4.215551 30.566006 30.052552
679 1 1 3.924048 30.424896 30.251334
680 1 1 3.807556 30.663350 30.523307
681 1 1 3.507932 30.871157 30.630274
682 1 1 3.196913 30.670701 30.716786
683 1 1 3.132329 30.310805 30.613326
684 1 1 3.424700 30.077147 30.679071
685 1 1 3.367872 29.705045 30.731140
686 1 1 3.035274 29.654601 30.907873
687 1 1 3.002377 29.382777 31.171367
688 1 1 3.188768 29.509733 31.477211
689 1 1 3.563161 29.502223 31.541817
690 1 1 3.729884 29.166337 31.603327
691 1 1 3.513636 28.870828 31.501782
692 1 1 3.511671 28.495892 31.563577
693 1 1 3.840050 28.349708 31.686856
694 1 1 3.912146 28.521058 32.018279
695 1 1 3.986899 28.884178 32.101684
696 1 1 4.263299 28.999832 31.867960
697 1 1 4.260591 29.379815 31.870338
698 1 1 4.256776 29.652045 31.605241
699 1 1 4.145843 29.645360 31.241855
700 1 1 4.290386 29.666332 30.891046
701 1 1 4.625977 29.488199 30.897927
702 1 1 4.843945 29.574987 31.196855
703 1 1 4.931256 29.319276 31.464042
704 1 1 4.942290 28.947998 31.383848
705 1 1 4.755651 28.872532 31.061558
706 1 1 4.584792 28.643178 30.811350
707 1 1 4.266598 28.444241 30.871155
708 1 1 4.200411 28.083335 30.772331
709 1 1 4.160054 27.736666 30.622025
710 1 1 3.797582 27.653258 30.544194
711 1 1 3.545378 27.370744 30.512913
712 1 1 3.368600 27.080775 30.342419
713 1 1 3.569346 26.795677 30.191356
714 1 1 3.578721 26.855697 29.816243
715 1 1 3.486274 26.745414 29.464545
716 1 1 3.648988 26.956303 29.193528
717 1 1 3.524187 27.203157 28.932976
718 1 1 3.319882 27.475581 29.101631
719 1 1 3.160436 27.559472 29.436204
720 1 1 3.401775 27.680130 29.703780
721 1 1 3.359379 28.014189 29.879868
722 1 1 3.109726 28.175280 30.116771
723 1 1 2.760077 28.098413 30.244196
724 1 1 2.595493 27.770125 30.341864
725 1 1 2.697879 27.457256 30.531681
726 1 1 2.730749 27.462853 30.910215
727 1 1 2.623194 27.646184 31.225210
728 1 1 2.901707 27.751895 31.461124
729 1 1 2.990986 27.891411 31.803125
730 1 1 3.328434 27.912510 31.976571
731 1 1 3.493084 27.766204 32.286224
732 1 1 3.542774 27.880916 32.645072
733 1 1 3.865149 28.011421 32.798183
734 1 1 4.165331 27.813239 32.675648
735 1 1 4.186656 27.436194 32.633434
736 1 1 3.858395 27.302437 32.770378
737 1 1 3.686228 27.384489 33.099052
738 1 1 3.647339 27.402970 33.476604
739 1 1 3.588186 27.493122 33.840985
740 1 1 3.836275 27.769221 33.922353
741 1 1 3.925456 28.023804 34.189999
742 1 1 4.245908 28.036631 34.393827
743 1 1 4.429672 27.903815 34.698770
744 1 1 4.344183 27.630669 34.948736
745 1 1 4.420095 27.289797 34.798923
746 1 1 4.117874 27.071880 34.873591
747 1 1 3.908071 27.038904 35.188703
748 1 1 3.631483 26.783995 35.242742
749 1 1 3.274918 26.785400 35.111368
750 1 1 3.053600 26.482987 35.048405
751 1 1 2.706136 26.407596 35.182513
752 1 1 2.699456 26.356084 35.558946
753 1 1 2.638437 26.641628 35.802137
754 1 1 2.841221 26.686827 36.120312
755 1 1 3.174031 26.837862 36.224359
756 1 1 3.313118 27.125990 36.429390
757 1 1 3.638670 27.249770 36.277422
758 1 1 3.754670 27.552670 36.475402
759 1 1 3.448977 27.772181 36.528000
760 1 1 3.306678 27.941140 36.218801
761 1 1 3.253603 28.029098 35.852951
762 1 1 2.983930 28.254251 35.708097
763 1 1 2.787563 28.119343 35.412056
764 1 1 2.705609 27.960548 35.076695
765 1 1 2.360765 27.801686 35.092384
766 1 1 2.087868 27.623615 35.287877
767 1 1 1.825504 27.774923 35.517378
768 1 1 1.664955 27.732280 35.859147
769 1 1 1.541524 27.373082 35.871046
770 1 1 1.495865 27.235344 35.519843
771 1 1 1.600362 26.910224 35.353179
772 1 1 1.375560 26.850158 35.052753
773 1 1 1.133604 26.883896 34.761687
774 1 1 1.229349 27.188261 34.555302
775 1 1 1.589596 27.265250 34.462057
776 1 1 1.755233 27.360266 34.790594
777 1 1 1.653692 27.718596 34.866017
778 1 1 1.602367 28.093660 34.832953
779 1 1 1.493919 28.291302 34.527050
780 1 1 1.194888 28.182797 34.319186
781 1 1 1.046289 28.095474 33.980522
782 1 1 1.083495 27.966817 33.624906
783 1 1 1.148847 27.630404 33.460725
784 1 1 1.443427 27.401432 33.532802
785 1 1 1.792864 27.546964 33.499418
786 1 1 1.933863 27.657222 33.164213
787 1 1 1.941988 28.027019 33.077127
788 1 1 1.593910 28.154748 32.993901
789 1 1 1.625832 28.528786 32.934934
790 1 1 1.988248 28.641697 32.952433
791 1 1 2.276255 28.623374 32.705216
792 1 1 2.483134 28.901926 32.550266
793 1 1 2.805100 28.779686 32.389657
794 1 1 2.857937 28.633736 32.042805
795 1 1 2.958016 28.821894 31.728192
796 1 1 2.695278 29.035346 31.555546
797 1 1 2.584411 29.395358 31.605545
798 1 1 2.591732 29.750693 31.471070
799 1 1 2.645118 29.999987 31.752855
800 1 1 2.958491 29.886859 31.935609
801 1 1 3.118736 29.652043 32.187767