LAMMPS data file for polymer system

27000 atoms
26940 bonds

1 atom types
1 bond types

0.0 33.93063421031722 xlo xhi
0.0 33.93063421031722 ylo yhi
0.0 33.93063421031722 zlo zhi

Masses

1 5.65487

Atoms

1 1 1 18.634821 0.892026 11.536362
2 1 1 18.630785 1.053163 11.880482
3 1 1 18.624067 1.330994 12.139643
4 1 1 18.307155 1.530580 12.075359
5 1 1 18.140459 1.768449 11.830347
6 1 1 17.955073 1.863679 11.512600
7 1 1 17.650083 2.077643 11.437765
8 1 1 17.698940 2.453931 11.417259
9 1 1 17.885699 2.752963 11.559035
10 1 1 18.173028 3.001636 11.561014
11 1 1 18.321940 3.164256 11.251530
12 1 1 18.331608 3.398644 10.952584
13 1 1 17.977997 3.491672 10.849122
14 1 1 17.702945 3.314404 10.655932
15 1 1 17.589085 2.995578 10.483346
16 1 1 17.242368 2.913605 10.351182
17 1 1 16.924955 2.742864 10.471585
18 1 1 16.881718 2.386819 10.597134
19 1 1 16.611229 2.123872 10.551362
20 1 1 16.281679 2.289348 10.643090
21 1 1 15.962287 2.311080 10.847827
22 1 1 15.587743 2.365335 10.882083
23 1 1 15.284635 2.501946 11.066101
24 1 1 15.036331 2.782777 11.003819
25 1 1 15.049549 3.057623 11.265897
26 1 1 15.202670 2.896601 11.574160
27 1 1 14.939270 2.904606 11.847941
28 1 1 14.612380 2.796778 11.686956
29 1 1 14.489971 2.504798 11.897109
30 1 1 14.169699 2.301311 11.917574
31 1 1 13.926785 2.330475 12.208336
32 1 1 13.553442 2.275246 12.164015
33 1 1 13.411739 2.523615 11.913749
34 1 1 13.148926 2.642979 11.666602
35 1 1 13.062359 2.595114 11.299703
36 1 1 12.853407 2.838377 11.095834
37 1 1 12.749620 2.749591 10.741228
38 1 1 12.666349 2.938188 10.422015
39 1 1 12.944093 2.869343 10.171977
40 1 1 13.166376 2.708593 9.909014
41 1 1 13.143610 2.761206 9.533363
42 1 1 13.339363 2.506021 9.330975
43 1 1 13.640198 2.282096 9.269684
44 1 1 13.712478 1.938084 9.125354
45 1 1 13.410049 1.752543 8.989298
46 1 1 13.172549 1.821959 8.700897
47 1 1 13.292853 1.618405 8.403420
48 1 1 13.312399 1.258780 8.524612
49 1 1 13.348379 1.015351 8.235047
50 1 1 13.071856 1.107669 7.991301
51 1 1 12.792104 0.982665 7.766550
52 1 1 12.585863 1.185178 7.519866
53 1 1 12.380846 1.431571 7.315762
54 1 1 12.094984 1.270212 7.124330
55 1 1 11.779385 1.105750 6.991102
56 1 1 11.635675 0.791841 7.149875
57 1 1 11.281714 0.691089 7.055214
58 1 1 10.966366 0.541702 7.205679
59 1 1 10.708298 0.614944 7.474819
60 1 1 10.376161 0.684546 7.645817
61 1 1 10.093546 0.433355 7.683664
62 1 1 10.022530 0.284091 7.341499
63 1 1 10.119010 0.030558 7.075393
64 1 1 10.105732 33.612630 6.924634
65 1 1 10.085509 33.760994 7.273889
66 1 1 10.409958 33.740887 7.470686
67 1 1 10.746511 33.711580 7.296695
68 1 1 10.861934 33.842650 6.959207
69 1 1 10.692827 0.023626 6.637732
70 1 1 10.667786 33.743905 6.322258
71 1 1 10.450845 33.579582 6.057051
72 1 1 10.679835 33.500373 5.764324
73 1 1 10.799579 33.327380 5.447882
74 1 1 10.807783 32.987394 5.278348
75 1 1 10.743337 32.900500 4.914073
76 1 1 10.651673 32.535935 4.858482
77 1 1 10.455348 32.290208 4.645235
78 1 1 10.389135 31.916127 4.654129
79 1 1 10.017586 31.839613 4.676419
80 1 1 9.915970 31.576267 4.422011
81 1 1 9.783787 31.296600 4.201300
82 1 1 9.780488 31.019952 3.940809
83 1 1 9.703775 30.675371 4.081445
84 1 1 9.593702 30.314101 4.123492
85 1 1 9.535658 30.021939 4.359443
86 1 1 9.780378 29.733426 4.323770
87 1 1 9.850807 29.363803 4.270680
88 1 1 9.755696 29.174418 3.955264
89 1 1 9.460778 28.935355 3.938753
90 1 1 9.539202 28.622489 3.737843
91 1 1 9.407485 28.593460 3.382586
92 1 1 9.089610 28.513799 3.190207
93 1 1 8.742698 28.528652 3.344580
94 1 1 8.790659 28.715174 3.672161
95 1 1 8.614654 28.995757 3.858426
96 1 1 8.727550 29.134790 4.193574
97 1 1 8.668592 29.208611 4.561643
98 1 1 8.648594 29.319749 4.924476
99 1 1 8.328666 29.194480 5.086813
100 1 1 8.185140 28.905357 5.287333
101 1 1 8.201122 28.813918 5.655821
102 1 1 8.120493 28.654947 5.991420
103 1 1 8.098153 28.924635 6.258195
104 1 1 7.890421 29.242463 6.242935
105 1 1 7.683851 29.543302 6.348883
106 1 1 7.376455 29.766067 6.332063
107 1 1 7.465745 30.082154 6.523155
108 1 1 7.380362 30.451730 6.500274
109 1 1 7.006933 30.470655 6.568038
110 1 1 6.766440 30.563393 6.847257
111 1 1 6.489880 30.392617 7.044106
112 1 1 6.642939 30.089950 7.215471
113 1 1 6.961044 30.183819 7.400937
114 1 1 7.058254 30.027027 7.733152
115 1 1 7.315097 29.785848 7.875503
116 1 1 7.311896 29.408889 7.827630
117 1 1 7.485955 29.239300 7.535494
118 1 1 7.424939 29.364504 7.181940
119 1 1 7.601120 29.192790 6.892328
120 1 1 7.610634 28.895969 6.655248
121 1 1 7.550044 28.570712 6.842161
122 1 1 7.630777 28.243499 6.666623
123 1 1 7.427219 28.063797 6.400782
124 1 1 7.205431 27.818415 6.213706
125 1 1 6.858979 27.831380 6.369279
126 1 1 6.864847 28.039664 6.687058
127 1 1 6.651238 27.985798 6.996687
128 1 1 6.328355 27.842435 7.136664
129 1 1 6.052323 27.834924 7.397720
130 1 1 5.858882 28.101419 7.587354
131 1 1 5.776797 28.458428 7.688381
132 1 1 5.501107 28.604819 7.471667
133 1 1 5.552030 28.924809 7.273140
134 1 1 5.480471 29.297868 7.262821
135 1 1 5.329310 29.607222 7.102040
136 1 1 5.103901 29.911733 7.131430
137 1 1 4.734303 29.825501 7.150455
138 1 1 4.503094 29.580518 7.326312
139 1 1 4.190084 29.596075 7.541214
140 1 1 3.998693 29.721489 7.844596
141 1 1 3.939714 30.087118 7.929670
142 1 1 4.131193 30.407765 7.999819
143 1 1 3.876574 30.688330 7.970620
144 1 1 3.504714 30.732117 8.035443
145 1 1 3.313224 31.057249 7.990484
146 1 1 3.051615 31.323038 7.917571
147 1 1 2.847856 31.206468 7.618750
148 1 1 2.627305 31.481871 7.477645
149 1 1 2.326405 31.633157 7.301657
150 1 1 2.215548 31.969356 7.439789
151 1 1 1.909622 31.966457 7.665179
152 1 1 1.585528 32.110153 7.801979
153 1 1 1.631700 32.429456 8.002763
154 1 1 1.650749 32.731129 8.233047
155 1 1 1.896421 32.852773 8.496197
156 1 1 2.203162 32.661869 8.613948
157 1 1 2.541954 32.752667 8.760152
158 1 1 2.894824 32.612394 8.745799
159 1 1 3.270438 32.644675 8.698131
160 1 1 3.618630 32.760231 8.599091
161 1 1 3.958459 32.930046 8.608002
162 1 1 4.193886 32.792214 8.872533
163 1 1 4.345530 32.476661 9.020284
164 1 1 4.341871 32.130779 9.177612
165 1 1 4.508277 31.792354 9.224277
166 1 1 4.644188 31.635122 9.542407
167 1 1 4.402426 31.351903 9.618158
168 1 1 4.202185 31.140181 9.862038
169 1 1 4.205089 31.318866 10.197393
170 1 1 3.998314 31.566182 10.398588
171 1 1 3.662180 31.742693 10.414643
172 1 1 3.473569 31.975031 10.648833
173 1 1 3.571668 32.052350 11.007718
174 1 1 3.856269 31.992019 11.252182
175 1 1 4.134582 31.810271 11.436327
176 1 1 4.254039 31.629718 11.748625
177 1 1 4.286797 31.252631 11.782273
178 1 1 4.114309 30.989409 11.569290
179 1 1 4.384638 30.849367 11.341890
180 1 1 4.574092 30.562341 11.503515
181 1 1 4.796593 30.406882 11.769459
182 1 1 4.591710 30.154180 11.965837
183 1 1 4.797844 29.989962 12.239591
184 1 1 5.142980 29.884109 12.358235
185 1 1 5.101187 29.661253 12.663175
186 1 1 4.831654 29.642799 12.930405
187 1 1 4.537892 29.816398 13.097638
188 1 1 4.506333 30.185549 13.182086
189 1 1 4.647253 30.511631 13.317038
190 1 1 4.983561 30.685904 13.347471
191 1 1 5.234589 30.876022 13.134775
192 1 1 5.591671 30.788443 13.230807
193 1 1 5.832186 30.987455 13.447479
194 1 1 5.856679 31.024686 13.824857
195 1 1 5.981641 30.703589 13.985112
196 1 1 6.356424 30.667069 14.036139
197 1 1 6.670065 30.877594 14.077473
198 1 1 6.764409 31.184381 14.280896
199 1 1 7.083065 31.385124 14.230294
200 1 1 7.400637 31.570548 14.326034
201 1 1 7.516183 31.446152 14.665997
202 1 1 7.655961 31.270887 14.972827
203 1 1 7.749663 31.115692 15.306794
204 1 1 7.876434 31.031450 15.654979
205 1 1 7.869334 30.715356 15.865773
206 1 1 8.147460 30.676978 16.121846
207 1 1 8.166786 30.759398 16.492296
208 1 1 8.282811 31.054898 16.701144
209 1 1 8.097476 31.155289 17.017329
210 1 1 8.211183 31.306598 17.346838
211 1 1 8.474352 31.501802 17.539289
212 1 1 8.522548 31.356861 17.887239
213 1 1 8.333360 31.509079 18.179537
214 1 1 7.962261 31.433045 18.149463
215 1 1 7.831632 31.659644 17.873802
216 1 1 7.809499 32.011947 18.014489
217 1 1 7.903451 32.019126 18.382621
218 1 1 7.839862 32.312976 18.615019
219 1 1 7.504698 32.489140 18.647138
220 1 1 7.160228 32.537606 18.494197
221 1 1 6.790140 32.584968 18.422142
222 1 1 6.449589 32.743838 18.478581
223 1 1 6.345705 32.738388 18.844064
224 1 1 6.219128 32.977207 19.111167
225 1 1 6.288781 33.056890 19.476131
226 1 1 5.977355 33.157034 19.669483
227 1 1 5.700794 32.940326 19.814230
228 1 1 5.360247 32.801305 19.718831
229 1 1 5.028409 32.977396 19.776060
230 1 1 4.753949 33.051059 19.523779
231 1 1 4.521415 32.859577 19.292127
232 1 1 4.506388 32.792670 18.918366
233 1 1 4.784791 32.592240 18.754903
234 1 1 4.923501 32.685721 18.413699
235 1 1 5.008405 32.484331 18.102840
236 1 1 4.810784 32.531330 17.781691
237 1 1 4.899080 32.521953 17.412210
238 1 1 4.648786 32.341981 17.190032
239 1 1 4.453919 32.553786 16.941909
240 1 1 4.332060 32.532828 16.582588
241 1 1 4.226074 32.260413 16.339777
242 1 1 4.515671 32.177243 16.108225
243 1 1 4.683613 31.844319 16.181419
244 1 1 4.798846 31.604854 15.909798
245 1 1 4.814608 31.225349 15.898510
246 1 1 5.100636 31.066462 15.705266
247 1 1 5.155867 31.006069 15.334183
248 1 1 5.484982 30.945101 15.154278
249 1 1 5.416690 30.984529 14.782550
250 1 1 5.519400 31.226827 14.508430
251 1 1 5.383865 31.572179 14.590662
252 1 1 5.590231 31.803889 14.810033
253 1 1 5.631101 32.089046 15.057854
254 1 1 5.292288 32.207978 15.182195
255 1 1 5.209819 32.468359 15.446393
256 1 1 5.427857 32.779557 15.442539
257 1 1 5.799082 32.726926 15.380714
258 1 1 6.003149 33.046991 15.398465
259 1 1 6.238871 33.344400 15.418029
260 1 1 6.615093 33.392449 15.394614
261 1 1 6.767961 33.739715 15.415548
262 1 1 6.703790 0.172703 15.325766
263 1 1 7.015527 0.377466 15.398514
264 1 1 7.327007 0.593867 15.375038
265 1 1 7.391844 0.937836 15.522962
266 1 1 7.519984 0.978707 15.878363
267 1 1 7.807030 0.763766 16.004079
268 1 1 7.995115 0.536931 16.244018
269 1 1 8.032785 0.399495 16.596285
270 1 1 7.993566 0.025807 16.653023
271 1 1 7.860363 33.654650 16.841646
272 1 1 8.144281 33.821480 17.031272
273 1 1 8.359305 33.730786 17.331171
274 1 1 8.445885 33.360825 17.336885
275 1 1 8.349377 33.209269 17.671724
276 1 1 8.303282 32.899607 17.887095
277 1 1 8.377323 32.856898 18.257357
278 1 1 8.363565 33.120128 18.531073
279 1 1 8.616639 33.396601 18.593654
280 1 1 8.987537 33.342067 18.655789
281 1 1 9.125181 32.998875 18.568191
282 1 1 9.053943 32.858778 18.222217
283 1 1 9.029821 32.559853 17.988846
284 1 1 9.299683 32.316142 18.099208
285 1 1 9.458790 32.028986 18.290587
286 1 1 9.206445 31.751382 18.351067
287 1 1 9.343400 31.396956 18.345987
288 1 1 9.639000 31.206266 18.202258
289 1 1 9.980521 31.253520 18.362040
290 1 1 10.301351 31.145029 18.189710
291 1 1 10.382713 31.152847 17.818604
292 1 1 10.660796 31.136414 17.560147
293 1 1 10.646692 30.966684 17.220452
294 1 1 10.282078 30.914778 17.126845
295 1 1 10.035773 30.979342 16.844771
296 1 1 9.696987 30.886832 16.989912
297 1 1 9.394015 30.769461 17.186970
298 1 1 9.175702 31.052334 17.316287
299 1 1 9.219552 31.411333 17.199682
300 1 1 8.986166 31.511803 16.917128
301 1 1 8.672736 31.524891 16.702675
302 1 1 8.653170 31.818954 16.462791
303 1 1 8.940115 31.780884 16.216593
304 1 1 9.136501 31.619806 15.933952
305 1 1 9.325330 31.372125 15.716242
306 1 1 9.133714 31.364492 15.388179
307 1 1 9.276589 31.512824 15.068829
308 1 1 9.019330 31.768698 14.955928
309 1 1 9.008062 31.883044 14.593715
310 1 1 9.208324 32.129446 14.384955
311 1 1 9.451880 32.343185 14.186468
312 1 1 9.402197 32.694460 14.050318
313 1 1 9.626868 32.756127 13.750117
314 1 1 9.574814 32.669397 13.383827
315 1 1 9.205490 32.584223 13.356518
316 1 1 9.136110 32.211909 13.325392
317 1 1 9.235113 31.856017 13.236290
318 1 1 9.614413 31.832974 13.237044
319 1 1 9.960289 31.886933 13.089200
320 1 1 10.129777 32.225848 13.117671
321 1 1 10.417558 32.421305 13.270571
322 1 1 10.612872 32.652060 13.040345
323 1 1 10.886507 32.893884 12.935249
324 1 1 11.193619 32.803626 13.140031
325 1 1 11.155243 32.453433 13.282482
326 1 1 11.277505 32.255670 13.583052
327 1 1 11.394352 31.895482 13.551261
328 1 1 11.566474 31.659994 13.794818
329 1 1 11.901949 31.532340 13.919559
330 1 1 12.059134 31.577307 14.262591
331 1 1 12.312659 31.336488 14.411356
332 1 1 12.483853 31.158584 14.122491
333 1 1 12.459764 30.889688 13.855069
334 1 1 12.505972 30.793684 13.490312
335 1 1 12.460087 31.036936 13.202001
336 1 1 12.614748 31.382915 13.174102
337 1 1 12.545796 31.698028 12.973230
338 1 1 12.550932 32.006193 13.195509
339 1 1 12.802103 32.093188 13.467069
340 1 1 13.070796 32.309385 13.626641
341 1 1 13.085516 32.295927 14.006117
342 1 1 13.201795 32.285668 14.367744
343 1 1 13.100738 32.430601 14.704169
344 1 1 12.976871 32.142849 14.919242
345 1 1 12.738818 32.286114 15.178483
346 1 1 12.890007 32.487923 15.462763
347 1 1 13.128234 32.630404 15.722276
348 1 1 13.460353 32.799089 15.647160
349 1 1 13.651552 32.592596 15.391810
350 1 1 14.030757 32.571187 15.379752
351 1 1 14.266493 32.759421 15.148675
352 1 1 14.575737 32.962659 15.062287
353 1 1 14.754855 33.264762 14.917199
354 1 1 15.027817 33.273868 14.652986
355 1 1 15.014424 33.623781 14.505399
356 1 1 15.147369 33.859312 14.772327
357 1 1 15.155581 0.151559 15.079990
358 1 1 15.306533 0.008442 15.398001
359 1 1 15.128568 33.728169 15.659242
360 1 1 15.504845 33.738935 15.607281
361 1 1 15.808282 33.782540 15.831835
362 1 1 16.008581 0.137796 15.681678
363 1 1 16.142517 0.457219 15.837980
364 1 1 16.345221 0.774528 15.889225
365 1 1 16.577499 1.052080 15.773415
366 1 1 16.463492 1.293157 15.502704
367 1 1 16.424342 1.664393 15.573774
368 1 1 16.421773 1.920150 15.854811
369 1 1 16.300243 2.277327 15.809473
370 1 1 15.957623 2.351726 15.956021
371 1 1 15.625256 2.309875 15.776632
372 1 1 15.375829 2.446641 15.524676
373 1 1 14.996543 2.423455 15.522504
374 1 1 14.832917 2.407173 15.179923
375 1 1 14.900870 2.178683 14.883993
376 1 1 15.056364 1.865302 15.032364
377 1 1 15.270782 1.581891 14.897818
378 1 1 15.639503 1.528843 14.972857
379 1 1 15.751429 1.167563 15.009586
380 1 1 16.084006 1.032118 14.885299
381 1 1 16.408959 1.063151 14.690769
382 1 1 16.678943 0.836967 14.548117
383 1 1 16.939803 0.786329 14.819756
384 1 1 16.973103 0.989592 15.139091
385 1 1 17.234139 1.215416 15.298036
386 1 1 17.306901 1.555236 15.144320
387 1 1 17.240996 1.928729 15.120664
388 1 1 17.498989 2.206166 15.091201
389 1 1 17.595210 2.281486 14.731384
390 1 1 17.964129 2.227864 14.657740
391 1 1 18.342324 2.264848 14.658385
392 1 1 18.709446 2.247838 14.754989
393 1 1 18.899322 2.030654 14.507646
394 1 1 19.030956 2.104846 14.158980
395 1 1 19.264739 2.099843 13.859447
396 1 1 19.556619 2.034933 13.624941
397 1 1 19.729721 1.856892 13.337300
398 1 1 19.524204 1.762680 13.031871
399 1 1 19.392187 1.980179 12.749619
400 1 1 19.260957 2.320540 12.643164
401 1 1 18.894998 2.410751 12.594835
402 1 1 18.637996 2.417527 12.874663
403 1 1 18.387333 2.252222 13.107562
404 1 1 18.352587 1.886118 13.203275
405 1 1 18.589340 1.622631 13.065717
406 1 1 18.834638 1.334184 13.033657
407 1 1 19.065446 1.134024 12.807686
408 1 1 19.022171 0.765864 12.891265
409 1 1 18.847147 0.728865 13.226523
410 1 1 18.689827 0.416966 13.376087
411 1 1 18.682485 0.037037 13.376190
412 1 1 18.784103 33.907020 13.015088
413 1 1 18.594960 33.902287 12.685538
414 1 1 18.546210 0.142342 12.349549
415 1 1 18.273445 0.373663 12.221137
416 1 1 18.100782 0.582437 12.487597
417 1 1 17.995953 0.746933 12.813713
418 1 1 18.186495 1.059514 12.915630
419 1 1 18.030254 1.383130 13.039166
420 1 1 17.788456 1.499578 13.308190
421 1 1 17.564515 1.229550 13.454256
422 1 1 17.254098 1.169273 13.243524
423 1 1 17.068280 0.893836 13.059116
424 1 1 16.847140 1.053896 12.794771
425 1 1 16.643493 1.112028 12.479258
426 1 1 16.288500 1.240405 12.435679
427 1 1 15.985914 1.381319 12.617297
428 1 1 15.931005 1.748901 12.696474
429 1 1 15.701324 1.951030 12.471107
430 1 1 15.354827 2.086946 12.394514
431 1 1 15.154998 2.258669 12.668338
432 1 1 14.905730 2.407193 12.913707
433 1 1 14.811708 2.613228 13.218845
434 1 1 14.741051 2.443903 13.551617
435 1 1 14.499932 2.602658 13.798717
436 1 1 14.140066 2.653893 13.687943
437 1 1 14.086087 3.030037 13.686543
438 1 1 14.091070 3.407586 13.643744
439 1 1 13.739965 3.500012 13.531571
440 1 1 13.757323 3.771323 13.266073
441 1 1 13.615982 4.035399 13.032222
442 1 1 13.643956 3.963237 12.660187
443 1 1 13.643815 3.972616 12.280302
444 1 1 13.684414 3.725200 11.994756
445 1 1 13.775430 3.584400 11.653740
446 1 1 13.544012 3.289730 11.590373
447 1 1 13.745577 2.972826 11.532550
448 1 1 13.907953 2.948882 11.189825
449 1 1 13.718511 3.132950 10.916638
450 1 1 13.927083 3.311942 10.654227
451 1 1 33.305945 27.627837 9.059531
452 1 1 32.995109 27.411137 9.030859
453 1 1 32.731748 27.171859 9.164227
454 1 1 32.390509 27.339025 9.167551
455 1 1 32.038514 27.196389 9.179981
456 1 1 32.017732 26.836557 9.300351
457 1 1 32.196348 26.511945 9.384752
458 1 1 32.220233 26.193844 9.591250
459 1 1 31.938515 26.160804 9.844120
460 1 1 31.620932 26.125288 9.638499
461 1 1 31.448176 26.159999 9.301823
462 1 1 31.098097 26.042327 9.212390
463 1 1 31.046220 26.062179 8.836471
464 1 1 31.271907 26.080964 8.531328
465 1 1 31.453683 25.818203 8.325624
466 1 1 31.379342 25.462306 8.215122
467 1 1 31.093610 25.392029 7.974668
468 1 1 30.756226 25.498066 8.113695
469 1 1 30.407374 25.623872 8.196609
470 1 1 30.222689 25.949814 8.260279
471 1 1 30.194761 26.272512 8.061569
472 1 1 30.353070 26.587134 8.204229
473 1 1 30.100035 26.870356 8.216812
474 1 1 30.183291 27.241123 8.216121
475 1 1 30.277361 27.609238 8.222594
476 1 1 30.254868 27.982099 8.292370
477 1 1 30.159542 28.340590 8.374815
478 1 1 29.938534 28.647256 8.413688
479 1 1 29.925087 28.861615 8.727168
480 1 1 29.929717 29.075895 9.040955
481 1 1 29.962209 29.381896 9.263907
482 1 1 30.249876 29.608925 9.364433
483 1 1 30.312621 29.901735 9.130498
484 1 1 30.441043 29.760580 8.801891
485 1 1 30.816141 29.699801 8.799120
486 1 1 31.004735 29.375318 8.739597
487 1 1 31.378034 29.434761 8.700678
488 1 1 31.582886 29.750963 8.750196
489 1 1 31.685521 30.116540 8.735367
490 1 1 31.743698 30.452618 8.567835
491 1 1 31.883445 30.685895 8.833264
492 1 1 31.847018 30.940569 9.112931
493 1 1 31.782831 31.270899 9.289459
494 1 1 31.529476 31.522079 9.420303
495 1 1 31.157373 31.474871 9.481219
496 1 1 30.819301 31.302552 9.460885
497 1 1 30.650042 31.419829 9.141514
498 1 1 30.582605 31.510426 8.778686
499 1 1 30.808544 31.566168 8.478278
500 1 1 31.144634 31.738328 8.520753
501 1 1 31.331573 32.044511 8.395428
502 1 1 31.350507 32.084269 8.017989
503 1 1 31.362477 31.779311 7.791586
504 1 1 31.542241 31.780914 7.456800
505 1 1 31.662899 31.814296 7.098014
506 1 1 31.435919 31.829257 6.793619
507 1 1 31.316246 32.001005 6.476474
508 1 1 31.382298 32.370090 6.414723
509 1 1 31.255943 32.672520 6.607001
510 1 1 31.281679 32.722021 6.982883
511 1 1 31.242143 33.026413 7.206898
512 1 1 31.345676 33.390922 7.178371
513 1 1 31.123651 33.614106 7.391195
514 1 1 30.778151 33.650503 7.545158
515 1 1 30.570863 0.036804 7.513795
516 1 1 30.868670 0.272447 7.527337
517 1 1 31.035387 0.541989 7.317689
518 1 1 31.070373 0.488661 6.943079
519 1 1 31.418482 0.574940 6.817477
520 1 1 31.739465 0.743247 6.703274
521 1 1 31.980936 0.966455 6.893722
522 1 1 32.067879 1.310333 6.757381
523 1 1 32.129349 1.643510 6.585292
524 1 1 31.932475 1.959017 6.663365
525 1 1 31.766786 2.084399 6.981527
526 1 1 31.624306 1.848254 7.242937
527 1 1 31.687585 1.480520 7.314820
528 1 1 31.587259 1.166932 7.504549
529 1 1 31.827882 1.000567 7.747084
530 1 1 32.080994 0.722144 7.800139
531 1 1 32.450658 0.776426 7.730839
532 1 1 32.636288 1.101160 7.797838
533 1 1 32.774397 1.210547 7.461148
534 1 1 32.795212 1.569690 7.338741
535 1 1 32.843666 1.944878 7.374602
536 1 1 33.014137 2.238810 7.204475
537 1 1 33.313552 2.096593 7.018666
538 1 1 33.660184 2.071913 6.864922
539 1 1 33.876722 2.298499 7.079793
540 1 1 0.028219 1.950389 6.951444
541 1 1 0.402061 2.017762 6.941314
542 1 1 0.764911 2.123802 6.902641
543 1 1 0.758698 2.503190 6.923275
544 1 1 0.976242 2.814529 6.911343
545 1 1 0.744996 3.115350 6.932134
546 1 1 0.892077 3.459473 6.866209
547 1 1 1.266590 3.484159 6.806787
548 1 1 1.554748 3.291465 6.962460
549 1 1 1.760820 3.268275 7.280888
550 1 1 1.888917 3.092600 7.592544
551 1 1 1.842688 2.883698 7.906587
552 1 1 1.956525 2.527956 7.976507
553 1 1 2.084966 2.195258 8.107712
554 1 1 2.270053 2.011637 7.831259
555 1 1 2.531710 1.752101 7.923868
556 1 1 2.766450 1.668062 7.637102
557 1 1 3.140410 1.640637 7.698757
558 1 1 3.443702 1.411695 7.698443
559 1 1 3.818015 1.414517 7.763878
560 1 1 4.097409 1.575746 7.563020
561 1 1 4.215692 1.828428 7.305026
562 1 1 4.040856 1.804541 6.968483
563 1 1 4.112838 1.822112 6.595776
564 1 1 4.259210 1.850349 6.246237
565 1 1 4.273966 2.101297 5.961269
566 1 1 4.205030 2.443722 5.811625
567 1 1 3.988633 2.750788 5.754331
568 1 1 4.194983 3.020975 5.584571
569 1 1 4.273042 3.351296 5.413706
570 1 1 4.046887 3.430364 5.118745
571 1 1 3.666901 3.430742 5.122052
572 1 1 3.459077 3.196039 4.907288
573 1 1 3.097520 3.304724 4.864115
574 1 1 2.927573 3.486756 5.151139
575 1 1 2.671062 3.476627 5.431316
576 1 1 2.456390 3.563434 5.732614
577 1 1 2.450083 3.607105 6.110043
578 1 1 2.564176 3.371021 6.385083
579 1 1 2.620418 3.315964 6.756843
580 1 1 2.286462 3.230064 6.916512
581 1 1 2.056647 3.093687 6.646352
582 1 1 1.952569 3.121974 6.281979
583 1 1 1.643449 3.135712 6.061397
584 1 1 1.438135 3.156614 5.742322
585 1 1 1.467213 3.200209 5.365953
586 1 1 1.269519 3.099377 5.057489
587 1 1 0.913054 2.983986 5.120871
588 1 1 0.694308 3.188511 4.886948
589 1 1 0.355037 3.320742 4.778273
590 1 1 0.215233 3.600433 4.562340
591 1 1 33.773971 3.662791 4.515385
592 1 1 33.719464 3.461145 4.197946
593 1 1 33.416243 3.316694 4.020208
594 1 1 33.469292 3.023948 3.783807
595 1 1 33.800921 2.958308 3.610274
596 1 1 0.055904 3.261116 3.475167
597 1 1 0.390751 3.134105 3.602231
598 1 1 0.721295 3.290621 3.499065
599 1 1 0.993148 3.097105 3.317276
600 1 1 1.319104 3.105978 3.512401
601 1 1 1.655530 3.190237 3.357101
602 1 1 2.028135 3.243090 3.304448
603 1 1 2.294239 3.033617 3.476814
604 1 1 2.605943 2.824618 3.417152
605 1 1 2.811205 2.917951 3.111281
606 1 1 3.179726 2.849793 3.174105
607 1 1 3.295899 2.491893 3.121082
608 1 1 3.210958 2.225525 2.863724
609 1 1 3.353406 2.007489 2.587013
610 1 1 3.316120 1.629564 2.600517
611 1 1 3.667581 1.485288 2.608256
612 1 1 3.934885 1.628693 2.379383
613 1 1 3.904307 1.988856 2.262131
614 1 1 3.844652 2.263641 2.006525
615 1 1 3.992845 2.582304 1.861983
616 1 1 3.852035 2.915558 1.978236
617 1 1 3.747271 3.267128 2.077345
618 1 1 3.452439 3.505621 2.052950
619 1 1 3.487083 3.876477 1.977679
620 1 1 3.342704 4.212168 2.081922
621 1 1 3.251596 4.391654 1.759612
622 1 1 3.174415 4.247632 1.416536
623 1 1 3.050035 4.496640 1.157839
624 1 1 2.874526 4.700925 0.889764
625 1 1 2.844835 4.518892 0.557525
626 1 1 3.089676 4.524914 0.266980
627 1 1 3.089145 4.660528 33.842637
628 1 1 2.791084 4.882679 33.763843
629 1 1 2.634568 4.743409 33.446816
630 1 1 2.757926 4.487015 33.194933
631 1 1 3.093502 4.368321 33.061888
632 1 1 3.440414 4.515592 33.110500
633 1 1 3.738719 4.394705 32.908509
634 1 1 4.116943 4.361882 32.924917
635 1 1 4.392558 4.618925 32.876281
636 1 1 4.248851 4.965848 32.934528
637 1 1 4.149800 5.151355 33.251034
638 1 1 4.050468 5.507904 33.164976
639 1 1 3.686783 5.579563 33.248633
640 1 1 3.380245 5.355449 33.234229
641 1 1 3.027677 5.467410 33.321179
642 1 1 2.905644 5.817323 33.237103
643 1 1 3.013740 6.153826 33.097529
644 1 1 3.316885 6.324425 33.250497
645 1 1 3.565598 6.575881 33.111532
646 1 1 3.799882 6.859409 33.207049
647 1 1 4.162208 6.879916 33.319738
648 1 1 4.343968 7.183759 33.457734
649 1 1 4.244693 7.426003 33.733165
650 1 1 3.866296 7.426109 33.768035
651 1 1 3.583299 7.226693 33.924706
652 1 1 3.909617 7.202502 0.187286
653 1 1 4.061368 6.896379 0.020972
654 1 1 3.935619 6.537838 0.015047
655 1 1 3.699240 6.247816 33.879257
656 1 1 3.920704 6.315842 33.578049
657 1 1 4.210328 6.201343 33.360315
658 1 1 4.437239 6.144688 33.060813
659 1 1 4.784740 6.014694 32.978687
660 1 1 4.989334 5.872799 33.265754
661 1 1 5.325998 5.742599 33.146987
662 1 1 5.475924 6.002436 32.913734
663 1 1 5.741532 6.269987 32.961368
664 1 1 5.610662 6.619965 33.030565
665 1 1 5.835777 6.881874 33.189080
666 1 1 6.186723 6.753890 33.258770
667 1 1 6.362268 6.423867 33.327099
668 1 1 6.257222 6.104951 33.505027
669 1 1 6.194443 5.734362 33.449147
670 1 1 6.188604 5.633611 33.082793
671 1 1 6.314660 5.381148 32.828288
672 1 1 6.367907 5.544993 32.489585
673 1 1 6.670463 5.387231 32.322340
674 1 1 6.980510 5.564377 32.452303
675 1 1 6.946911 5.938720 32.396288
676 1 1 6.755108 6.231151 32.247640
677 1 1 6.531823 6.524357 32.340236
678 1 1 6.440210 6.725911 32.031395
679 1 1 6.131709 6.880446 31.872192
680 1 1 5.929126 6.667704 31.631151
681 1 1 5.945981 6.746658 31.259826
682 1 1 5.900611 6.916730 30.923051
683 1 1 5.797273 6.979986 30.562885
684 1 1 6.111124 7.081940 30.374462
685 1 1 6.338236 7.313271 30.176204
686 1 1 6.467657 7.646777 30.048048
687 1 1 6.713289 7.935932 30.069351
688 1 1 7.048245 7.791651 29.962639
689 1 1 7.041856 7.418237 29.892491
690 1 1 6.900454 7.077608 29.984020
691 1 1 6.943838 6.742370 29.810431
692 1 1 7.256718 6.746878 29.594824
693 1 1 7.351083 6.488586 29.332565
694 1 1 7.143066 6.255682 29.116037
695 1 1 7.061783 5.923108 28.951149
696 1 1 6.740946 5.952895 28.749713
697 1 1 6.580316 6.021344 28.412203
698 1 1 6.425135 6.366967 28.382819
699 1 1 6.650463 6.652610 28.492523
700 1 1 6.549750 6.962097 28.688673
701 1 1 6.322687 7.196320 28.883563
702 1 1 6.189558 7.506115 28.708338
703 1 1 5.846872 7.434569 28.560528
704 1 1 5.549897 7.610511 28.401625
705 1 1 5.290613 7.862078 28.283788
706 1 1 4.914749 7.868179 28.228208
707 1 1 4.850844 8.154529 27.986712
708 1 1 4.616254 8.442912 28.065469
709 1 1 4.257388 8.474066 27.944454
710 1 1 3.896660 8.372289 27.881868
711 1 1 3.657020 8.531462 28.130135
712 1 1 3.308416 8.664326 28.202401
713 1 1 3.034446 8.616885 28.461418
714 1 1 2.769342 8.837002 28.621631
715 1 1 2.411069 8.868916 28.744194
716 1 1 2.242561 8.641065 28.997353
717 1 1 2.101525 8.356964 29.206626
718 1 1 2.138227 8.040224 29.413336
719 1 1 2.126933 7.667521 29.486582
720 1 1 1.878440 7.433743 29.319253
721 1 1 2.043137 7.278707 29.013903
722 1 1 1.961007 7.195999 28.652220
723 1 1 1.917541 6.950120 28.365769
724 1 1 1.880400 6.786708 28.024717
725 1 1 1.601275 6.671324 27.794118
726 1 1 1.336474 6.399970 27.768666
727 1 1 1.409548 6.028055 27.795848
728 1 1 1.082483 5.836310 27.821587
729 1 1 1.060229 5.457023 27.828356
730 1 1 1.151112 5.350625 27.475058
731 1 1 0.894579 5.220484 27.226756
732 1 1 1.048638 5.270788 26.883048
733 1 1 1.405455 5.228853 26.759263
734 1 1 1.604223 4.910616 26.699127
735 1 1 1.349888 4.628283 26.700396
736 1 1 1.444298 4.324515 26.908271
737 1 1 1.588108 4.085162 27.166009
738 1 1 1.359805 4.069687 27.469387
739 1 1 1.134803 4.347739 27.597689
740 1 1 1.057775 4.380760 27.968332
741 1 1 0.896563 4.138581 28.212790
742 1 1 1.043782 4.065665 28.555442
743 1 1 1.009912 3.820243 28.843575
744 1 1 0.695180 3.608513 28.866238
745 1 1 0.559963 3.281036 28.728850
746 1 1 0.202372 3.163644 28.781271
747 1 1 33.921048 2.949725 28.549512
748 1 1 33.754360 3.153775 28.275689
749 1 1 33.901582 3.411309 28.038198
750 1 1 33.635599 3.497154 27.780741
751 1 1 33.589056 3.856592 27.666559
752 1 1 33.481017 4.194576 27.530563
753 1 1 33.708588 4.483645 27.435429
754 1 1 33.799860 4.848473 27.489921
755 1 1 0.149262 4.912426 27.738697
756 1 1 0.250360 4.570658 27.606887
757 1 1 0.432423 4.283544 27.776646
758 1 1 0.206775 4.113356 28.030652
759 1 1 0.310606 4.182602 28.389573
760 1 1 33.917036 4.040244 28.527507
761 1 1 33.546301 4.121431 28.508434
762 1 1 33.244070 3.901855 28.578024
763 1 1 32.874598 3.972751 28.631544
764 1 1 32.568613 4.191794 28.578694
765 1 1 32.260706 4.035372 28.737203
766 1 1 31.945742 3.912353 28.910594
767 1 1 31.665501 3.693305 29.044320
768 1 1 31.424969 3.594686 28.767158
769 1 1 31.333039 3.867732 28.519379
770 1 1 30.979334 3.825119 28.387179
771 1 1 30.667495 3.971050 28.547990
772 1 1 30.409925 4.057638 28.813622
773 1 1 30.186789 4.279286 29.026888
774 1 1 29.870742 4.332789 28.822801
775 1 1 29.544298 4.389380 28.636705
776 1 1 29.397866 4.738241 28.601298
777 1 1 29.453815 5.110833 28.551851
778 1 1 29.644489 5.394343 28.718181
779 1 1 29.923193 5.282022 28.950792
780 1 1 29.904549 5.289294 29.330265
781 1 1 29.706323 5.401984 29.634250
782 1 1 29.735823 5.608832 29.951651
783 1 1 29.402313 5.779511 30.015211
784 1 1 29.118549 5.741583 30.265091
785 1 1 28.781724 5.769151 30.091342
786 1 1 28.588308 5.964093 29.828687
787 1 1 28.583033 6.209006 29.538188
788 1 1 28.622803 6.281901 29.167371
789 1 1 28.684606 6.355464 28.799718
790 1 1 28.670129 6.613087 28.520754
791 1 1 28.741267 6.428037 28.196570
792 1 1 28.659097 6.063433 28.127924
793 1 1 28.656488 5.999481 27.753353
794 1 1 28.871580 5.722678 27.606671
795 1 1 29.021426 5.403299 27.747892
796 1 1 29.175368 5.060888 27.806685
797 1 1 29.499662 4.879180 27.885526
798 1 1 29.617339 4.519488 27.851267
799 1 1 29.880838 4.484057 27.579765
800 1 1 29.719397 4.332509 27.270944
801 1 1 29.709949 4.026595 27.045718
802 1 1 29.949883 3.777689 27.203444
803 1 1 30.019146 3.625808 27.544816
804 1 1 29.837690 3.388179 27.779351
805 1 1 29.985469 3.066385 27.917226
806 1 1 30.359209 2.999409 27.932475
807 1 1 30.725685 3.045733 27.843315
808 1 1 30.995908 2.902827 28.069053
809 1 1 30.854316 2.712727 28.366060
810 1 1 30.884723 2.794310 28.735951
811 1 1 30.734144 2.634213 29.045943
812 1 1 30.623778 2.364055 29.289323
813 1 1 30.783945 2.030678 29.202110
814 1 1 31.084487 1.808423 29.133718
815 1 1 31.458251 1.767991 29.189090
816 1 1 31.662093 1.458061 29.106678
817 1 1 31.532248 1.101488 29.126567
818 1 1 31.285671 0.825001 29.211154