LAMMPS data file for polymer system

27000 atoms
26940 bonds

1 atom types
1 bond types

0.0 33.93063421031722 xlo xhi
0.0 33.93063421031722 ylo yhi
0.0 33.93063421031722 zlo zhi

Masses

1 5.65487

Atoms

1 1 1 7.644099 17.505992 0.910945
2 1 1 7.572119 17.728128 0.611155
3 1 1 7.374501 17.677364 0.290577
4 1 1 7.185601 17.801978 33.915944
5 1 1 7.457500 17.557055 33.813554
6 1 1 7.699252 17.758631 33.600662
7 1 1 8.072663 17.773476 33.531787
8 1 1 8.427393 17.791149 33.396680
9 1 1 8.691689 17.676859 33.148717
10 1 1 8.533435 17.498676 32.852733
11 1 1 8.415977 17.574151 32.499311
12 1 1 8.458650 17.680087 32.136880
13 1 1 8.732503 17.703070 31.874437
14 1 1 9.078493 17.744202 31.722781
15 1 1 9.374720 17.966926 31.638857
16 1 1 9.303798 18.297658 31.812023
17 1 1 9.314262 18.670536 31.739545
18 1 1 9.304448 18.936870 32.010413
19 1 1 8.987310 19.144614 31.984600
20 1 1 8.789988 19.153546 31.659971
21 1 1 8.788554 19.236560 31.289152
22 1 1 8.809850 19.338253 30.923632
23 1 1 8.566068 19.432468 30.647781
24 1 1 8.401448 19.691152 30.423319
25 1 1 8.141228 19.870995 30.212744
26 1 1 7.822023 19.993849 30.047168
27 1 1 7.695599 20.229554 29.777242
28 1 1 7.516857 20.359500 29.468106
29 1 1 7.344659 20.095423 29.255947
30 1 1 7.071542 19.886808 29.093814
31 1 1 6.880507 20.085077 28.831907
32 1 1 6.736793 20.331348 28.580716
33 1 1 6.359174 20.346522 28.620390
34 1 1 6.008791 20.475281 28.549305
35 1 1 5.675698 20.388073 28.710065
36 1 1 5.556907 20.045470 28.596432
37 1 1 5.231838 19.936472 28.760289
38 1 1 5.258281 19.562928 28.824833
39 1 1 5.524289 19.321768 28.700410
40 1 1 5.552604 19.049787 28.436545
41 1 1 5.471896 18.942262 28.081123
42 1 1 5.448423 19.181764 27.787034
43 1 1 5.287307 19.525852 27.793734
44 1 1 4.936891 19.578448 27.931002
45 1 1 4.734596 19.888556 28.016498
46 1 1 4.908442 20.225937 27.997731
47 1 1 5.020077 20.459757 27.719765
48 1 1 4.736348 20.662937 27.569378
49 1 1 4.362729 20.600924 27.538336
50 1 1 4.039084 20.442305 27.658726
51 1 1 3.725883 20.514400 27.861475
52 1 1 3.471654 20.245990 27.773589
53 1 1 3.351290 20.256518 27.413309
54 1 1 2.971644 20.262075 27.397898
55 1 1 2.817971 19.914536 27.396612
56 1 1 2.712999 19.589656 27.229778
57 1 1 2.887509 19.415392 26.940679
58 1 1 2.758516 19.460879 26.586148
59 1 1 2.538770 19.183481 26.447721
60 1 1 2.560941 18.829519 26.584176
61 1 1 2.558388 18.575979 26.301137
62 1 1 2.758068 18.291813 26.146937
63 1 1 2.885411 17.933851 26.140095
64 1 1 3.050020 17.885607 25.801013
65 1 1 3.099613 17.884668 25.424265
66 1 1 3.470995 17.943405 25.369262
67 1 1 3.661302 18.235849 25.519794
68 1 1 3.775729 18.528641 25.733288
69 1 1 3.557290 18.838122 25.763382
70 1 1 3.691987 19.043634 26.053246
71 1 1 3.701442 18.887235 26.399440
72 1 1 4.044379 18.767419 26.510965
73 1 1 4.419320 18.782961 26.570780
74 1 1 4.552422 18.535821 26.826916
75 1 1 4.282515 18.291190 26.935109
76 1 1 3.989302 18.384975 27.157888
77 1 1 3.947136 18.702909 27.361702
78 1 1 3.888093 19.076604 27.397277
79 1 1 3.926814 19.440181 27.500778
80 1 1 4.186590 19.708373 27.430143
81 1 1 3.997791 19.982428 27.246707
82 1 1 3.824914 20.188477 26.978272
83 1 1 3.885493 19.998555 26.654760
84 1 1 4.175684 19.828815 26.477622
85 1 1 4.498556 20.029200 26.477905
86 1 1 4.504900 20.315609 26.727564
87 1 1 4.721336 20.364865 27.035995
88 1 1 5.015601 20.147550 27.138867
89 1 1 5.033084 19.775984 27.216539
90 1 1 5.126608 19.418828 27.126580
91 1 1 5.022624 19.055020 27.091491
92 1 1 5.185519 18.729892 27.201751
93 1 1 5.537808 18.587861 27.190833
94 1 1 5.751270 18.837744 27.381602
95 1 1 5.870102 19.128989 27.168399
96 1 1 5.963668 19.471231 27.304471
97 1 1 5.876754 19.820603 27.426065
98 1 1 5.813328 20.186506 27.345491
99 1 1 5.811171 20.459708 27.609605
100 1 1 5.643896 20.362042 27.936530
101 1 1 5.514261 20.686275 28.086424
102 1 1 5.530252 20.985862 27.853203
103 1 1 5.300865 21.021297 27.552328
104 1 1 5.057951 21.105069 27.272372
105 1 1 5.123694 21.400708 27.042862
106 1 1 5.484730 21.502479 26.982072
107 1 1 5.608994 21.452117 26.626513
108 1 1 5.899555 21.442341 26.381811
109 1 1 6.224743 21.246605 26.400244
110 1 1 6.297850 20.878045 26.343510
111 1 1 6.506777 20.572709 26.256798
112 1 1 6.498075 20.376557 25.931453
113 1 1 6.496821 20.433341 25.555722
114 1 1 6.188758 20.577788 25.386512
115 1 1 5.820423 20.594798 25.478381
116 1 1 5.459282 20.552039 25.368159
117 1 1 5.262820 20.756057 25.114823
118 1 1 5.081485 20.941836 24.837327
119 1 1 4.777201 20.948651 24.609808
120 1 1 4.507617 21.198415 24.706463
121 1 1 4.202740 20.994846 24.806513
122 1 1 3.845947 21.105264 24.736465
123 1 1 3.548615 21.340523 24.711037
124 1 1 3.332806 21.541828 24.471657
125 1 1 3.061826 21.780453 24.353216
126 1 1 2.994884 22.149869 24.294469
127 1 1 3.002133 22.528717 24.265815
128 1 1 2.708524 22.673185 24.459007
129 1 1 2.385171 22.579517 24.282744
130 1 1 2.216346 22.399281 23.993931
131 1 1 1.892311 22.209725 24.052836
132 1 1 1.548724 22.102257 23.931184
133 1 1 1.294323 22.352814 23.801179
134 1 1 1.178026 22.557422 24.099526
135 1 1 0.807644 22.622616 24.045061
136 1 1 0.561851 22.911865 24.062975
137 1 1 0.371309 23.067589 24.352532
138 1 1 0.630119 23.237429 24.572922
139 1 1 0.798604 23.455781 24.834332
140 1 1 1.050304 23.665550 25.026800
141 1 1 1.104016 23.974618 24.812343
142 1 1 0.996649 24.338242 24.786840
143 1 1 0.684054 24.351633 24.571191
144 1 1 0.629107 24.050677 24.345789
145 1 1 0.850030 24.073339 24.037438
146 1 1 1.137925 24.316019 24.088651
147 1 1 1.207570 24.688229 24.120426
148 1 1 1.024751 25.001840 24.008064
149 1 1 0.698351 25.180868 24.084300
150 1 1 0.558127 25.492762 23.918593
151 1 1 0.404798 25.688924 23.631520
152 1 1 0.227539 25.876748 23.352770
153 1 1 0.278868 26.246100 23.425875
154 1 1 0.327157 26.568908 23.620460
155 1 1 0.092526 26.696528 23.890757
156 1 1 33.684983 26.543941 23.972936
157 1 1 33.845010 26.321419 24.236138
158 1 1 33.714046 26.031586 24.444092
159 1 1 33.670480 25.904670 24.799612
160 1 1 0.098740 25.782271 24.824384
161 1 1 0.059121 25.887560 25.187350
162 1 1 33.789194 25.918380 25.508637
163 1 1 33.882815 26.234309 25.697910
164 1 1 33.617796 26.431557 25.885682
165 1 1 33.719202 26.474892 26.249328
166 1 1 0.021473 26.668910 26.020172
167 1 1 0.085651 26.899549 25.725067
168 1 1 33.873231 27.040797 25.402601
169 1 1 33.830387 27.380455 25.237686
170 1 1 33.582221 27.516156 24.983917
171 1 1 0.017156 27.547821 25.082694
172 1 1 0.294942 27.402533 25.297464
173 1 1 0.506744 27.114477 25.168764
174 1 1 0.885848 27.104048 25.144855
175 1 1 1.200371 26.916313 25.043708
176 1 1 1.499275 26.743546 25.202478
177 1 1 1.618185 26.982656 25.472825
178 1 1 1.820262 27.039238 25.789626
179 1 1 2.053952 26.996493 26.086211
180 1 1 2.359136 26.813328 25.953119
181 1 1 2.670142 26.882771 25.746110
182 1 1 2.992554 26.688955 25.692389
183 1 1 3.061897 26.557456 25.342675
184 1 1 2.850841 26.378137 25.082483
185 1 1 2.815535 26.504567 24.725876
186 1 1 3.060006 26.782895 24.641219
187 1 1 3.410906 26.840375 24.507182
188 1 1 3.751951 26.689568 24.580296
189 1 1 3.902188 26.846088 24.892274
190 1 1 3.743572 27.183643 24.965062
191 1 1 3.487386 27.189608 25.245657
192 1 1 3.201044 27.411478 25.130844
193 1 1 2.909272 27.654723 25.120792
194 1 1 2.631047 27.811322 25.326867
195 1 1 2.615346 27.696927 25.688899
196 1 1 2.785729 27.849758 25.992235
197 1 1 2.969022 28.175854 25.925416
198 1 1 3.035523 28.444401 25.664916
199 1 1 3.034379 28.617870 25.326822
200 1 1 3.276246 28.873653 25.183730
201 1 1 3.328491 29.227742 25.056090
202 1 1 3.468596 29.567596 25.152370
203 1 1 3.258932 29.797769 25.370227
204 1 1 2.942987 29.865113 25.570337
205 1 1 2.722546 29.579410 25.689416
206 1 1 2.861413 29.367829 25.972876
207 1 1 2.964063 29.004000 26.011491
208 1 1 2.820696 28.720191 26.219575
209 1 1 2.519837 28.761487 26.448000
210 1 1 2.549253 29.089101 26.638274
211 1 1 2.353126 29.192300 26.946955
212 1 1 2.068266 29.294494 27.176761
213 1 1 1.706172 29.406193 27.205252
214 1 1 1.621345 29.750659 27.069061
215 1 1 1.656278 30.119360 26.983976
216 1 1 2.026386 30.170135 26.914393
217 1 1 2.333088 29.985801 27.042278
218 1 1 2.673604 29.839622 26.958133
219 1 1 3.039388 29.889992 26.868325
220 1 1 3.121331 29.701800 26.548529
221 1 1 3.420366 29.726124 26.315320
222 1 1 3.741049 29.687619 26.515518
223 1 1 3.749873 29.413462 26.778501
224 1 1 3.833753 29.058449 26.884945
225 1 1 3.893591 28.708997 27.021702
226 1 1 4.260628 28.616945 27.056487
227 1 1 4.307673 28.246832 27.128620
228 1 1 4.543382 28.226736 27.426004
229 1 1 4.796048 27.979664 27.565700
230 1 1 4.715500 27.608327 27.570314
231 1 1 4.724334 27.237040 27.489892
232 1 1 4.806351 27.149320 27.129367
233 1 1 4.701521 26.796239 27.035856
234 1 1 4.491468 26.586029 27.272689
235 1 1 4.323140 26.252521 27.342241
236 1 1 4.220693 26.109523 27.005409
237 1 1 4.069610 26.142027 26.658253
238 1 1 4.048633 26.284287 26.306512
239 1 1 4.317848 26.380340 26.056118
240 1 1 4.167440 26.326142 25.711386
241 1 1 3.912642 26.600218 25.645355
242 1 1 3.748972 26.930734 25.736849
243 1 1 3.800884 27.035017 26.098554
244 1 1 3.898237 27.236847 26.405453
245 1 1 3.959723 27.327484 26.769327
246 1 1 3.778600 27.102932 27.016654
247 1 1 3.419023 27.129719 27.136600
248 1 1 3.310523 27.466678 27.274752
249 1 1 3.373736 27.816503 27.140489
250 1 1 3.678932 28.039368 27.100661
251 1 1 3.755704 28.235477 27.416964
252 1 1 3.817516 28.230393 27.791869
253 1 1 3.904259 28.500461 28.044731
254 1 1 4.096432 28.562102 28.366709
255 1 1 3.993474 28.776706 28.662927
256 1 1 3.762551 29.070895 28.730212
257 1 1 3.642151 29.224658 28.404235
258 1 1 3.445215 29.508494 28.245952
259 1 1 3.189106 29.787967 28.219436
260 1 1 3.040460 30.134430 28.171821
261 1 1 2.886801 30.480904 28.199115
262 1 1 2.786475 30.840604 28.128756
263 1 1 2.600833 31.085780 28.351973
264 1 1 2.584816 31.450203 28.458461
265 1 1 2.611911 31.479526 28.836358
266 1 1 2.700854 31.839222 28.920666
267 1 1 2.927789 31.816537 29.224617
268 1 1 3.012147 32.034342 29.524358
269 1 1 3.292298 32.230173 29.690387
270 1 1 3.566092 32.418684 29.874507
271 1 1 3.735441 32.625528 29.604439
272 1 1 3.916200 32.693616 29.277193
273 1 1 3.642054 32.755969 29.021545
274 1 1 3.445750 32.437878 28.953114
275 1 1 3.082074 32.413060 29.060466
276 1 1 2.788682 32.626697 29.173070
277 1 1 2.646067 32.560221 29.518963
278 1 1 2.801253 32.763578 29.799967
279 1 1 2.755814 33.139992 29.774516
280 1 1 2.414289 33.306271 29.763923
281 1 1 2.099840 33.519399 29.773821
282 1 1 1.925039 33.856594 29.761811
283 1 1 1.578131 0.080584 29.773910
284 1 1 1.710179 0.386029 29.957394
285 1 1 1.910175 0.640264 29.757980
286 1 1 1.779994 0.985619 29.667520
287 1 1 1.415862 1.085420 29.624534
288 1 1 1.043856 1.014801 29.656543
289 1 1 0.718083 1.017428 29.460928
290 1 1 0.340564 1.045065 29.427533
291 1 1 33.913274 0.977939 29.318976
292 1 1 33.575659 1.096546 29.446839
293 1 1 33.256981 1.289669 29.372360
294 1 1 33.076111 1.623844 29.368658
295 1 1 33.230749 1.874211 29.609080
296 1 1 33.596394 1.783937 29.659620
297 1 1 33.844695 2.054922 29.756130
298 1 1 0.210700 1.935701 29.550724
299 1 1 0.568135 1.946331 29.679284
300 1 1 0.860360 2.159054 29.562009
301 1 1 1.081801 2.455229 29.474578
302 1 1 1.432658 2.600936 29.482847
303 1 1 1.571559 2.893616 29.681454
304 1 1 1.472156 3.249328 29.592078
305 1 1 1.175283 3.410216 29.417774
306 1 1 0.860584 3.613052 29.482752
307 1 1 0.609838 3.454512 29.720220
308 1 1 0.649800 3.088302 29.813456
309 1 1 0.609524 2.824187 29.543231
310 1 1 0.397501 2.553120 29.382083
311 1 1 0.197623 2.478796 29.067560
312 1 1 33.767006 2.461520 28.950945
313 1 1 33.856999 2.406217 28.585920
314 1 1 33.702699 2.667217 28.356856
315 1 1 0.108253 2.491109 28.337782
316 1 1 0.359648 2.262815 28.508317
317 1 1 0.315076 1.967136 28.742811
318 1 1 0.043971 1.816894 28.962651
319 1 1 33.912879 1.714595 28.601923
320 1 1 0.033819 1.591198 28.246236
321 1 1 0.248218 1.797577 28.009929
322 1 1 0.518217 1.956571 27.794937
323 1 1 0.879560 1.863248 27.723371
324 1 1 1.138613 1.973769 27.978472
325 1 1 1.134552 1.861443 28.341468
326 1 1 1.312697 1.710740 28.641389
327 1 1 1.637342 1.518168 28.685225
328 1 1 2.013107 1.477958 28.645428
329 1 1 2.318084 1.667893 28.769178
330 1 1 2.592724 1.626941 28.509763
331 1 1 2.878322 1.791745 28.320889
332 1 1 3.076156 1.790747 27.996450
333 1 1 3.328015 1.612421 27.774714
334 1 1 3.675848 1.765067 27.785265
335 1 1 3.919308 1.579105 27.560442
336 1 1 3.946274 1.619795 27.183590
337 1 1 3.751197 1.788504 26.904516
338 1 1 3.465631 2.019277 26.806559
339 1 1 3.527283 2.387317 26.734828
340 1 1 3.681138 2.731666 26.688435
341 1 1 3.702201 2.989113 26.967141
342 1 1 3.413900 3.086074 27.194916
343 1 1 3.159496 2.807284 27.150709
344 1 1 2.915101 2.699013 26.880618
345 1 1 2.575087 2.815951 27.003563
346 1 1 2.303390 2.901705 27.255013
347 1 1 2.043418 2.911933 27.531979
348 1 1 1.685693 2.938253 27.406519
349 1 1 1.669246 3.140710 27.085364
350 1 1 1.627812 3.086737 26.711505
351 1 1 1.359003 3.108962 26.443834
352 1 1 1.066136 3.333957 26.354356
353 1 1 0.953198 3.673289 26.225907
354 1 1 0.709610 3.594935 25.944971
355 1 1 0.544050 3.347378 25.708951
356 1 1 0.406743 3.355371 25.354716
357 1 1 0.210696 3.365672 25.029355
358 1 1 0.139421 3.529832 24.694137
359 1 1 0.182343 3.872050 24.534623
360 1 1 0.084809 4.180235 24.334852
361 1 1 0.273632 4.472424 24.181974
362 1 1 0.653111 4.453027 24.186400
363 1 1 0.773137 4.319762 24.521414
364 1 1 0.511003 4.409069 24.781626
365 1 1 0.539044 4.416112 25.160524
366 1 1 0.621798 4.762588 25.292835
367 1 1 0.503927 4.974327 25.585535
368 1 1 0.568490 4.893350 25.951149
369 1 1 0.947313 4.888634 25.980672
370 1 1 1.251483 4.671705 25.911230
371 1 1 1.168485 4.301825 25.937685
372 1 1 0.893996 4.129417 25.739363
373 1 1 0.541720 4.192491 25.867125
374 1 1 0.351051 4.120246 26.187791
375 1 1 0.148835 3.971095 26.472856
376 1 1 33.718618 3.852710 26.459759
377 1 1 33.793785 3.481746 26.426065
378 1 1 33.687925 3.215154 26.176820
379 1 1 0.012224 3.259409 26.455120
380 1 1 0.270776 3.134065 26.206444
381 1 1 0.569638 2.904887 26.155856
382 1 1 0.894770 2.730288 26.246434
383 1 1 0.910041 2.729785 26.626127
384 1 1 0.704703 2.862034 26.917240
385 1 1 0.833417 2.889855 27.273693
386 1 1 0.659614 3.117423 27.523503
387 1 1 0.350021 3.202686 27.726684
388 1 1 0.238748 3.365542 28.051486
389 1 1 33.799064 3.442846 28.087375
390 1 1 33.681898 3.448482 27.725933
391 1 1 33.847830 3.534393 27.395046
392 1 1 0.096814 3.743646 27.133606
393 1 1 0.068066 3.951294 27.450554
394 1 1 0.258180 3.914161 27.777476
395 1 1 0.207531 4.241056 27.964492
396 1 1 0.404168 4.563262 27.920706
397 1 1 0.286604 4.858112 28.129613
398 1 1 0.365516 5.210914 28.246673
399 1 1 0.421007 5.556155 28.097913
400 1 1 0.447992 5.862559 27.874780
401 1 1 0.513383 6.188144 28.059492
402 1 1 0.700632 6.402838 28.310977
403 1 1 0.613864 6.714053 28.511017
404 1 1 0.428097 6.698839 28.842166
405 1 1 0.464417 6.347367 28.981980
406 1 1 0.428250 6.065945 29.234753
407 1 1 0.228885 5.757110 29.331055
408 1 1 33.898948 5.499571 29.230178
409 1 1 33.590831 5.444877 29.014603
410 1 1 33.350664 5.733020 28.953831
411 1 1 33.088321 6.007835 28.961129
412 1 1 32.716150 6.061585 28.906357
413 1 1 32.576887 6.396152 29.020681
414 1 1 32.628888 6.763274 28.937509
415 1 1 32.314998 6.976957 28.922924
416 1 1 32.007087 6.891655 28.717220
417 1 1 31.642562 6.881941 28.824118
418 1 1 31.495871 6.536073 28.767051
419 1 1 31.141745 6.516661 28.903498
420 1 1 31.156243 6.274026 29.195591
421 1 1 31.045996 6.254158 29.558703
422 1 1 31.193067 6.167691 29.898252
423 1 1 31.312550 6.101179 30.252794
424 1 1 31.564461 6.229567 30.506679
425 1 1 31.905899 6.390970 30.548739
426 1 1 31.970112 6.630432 30.836723
427 1 1 31.837492 6.921158 31.042370
428 1 1 31.689187 6.909084 31.392026
429 1 1 31.475274 6.626731 31.529570
430 1 1 31.117752 6.515945 31.595179
431 1 1 31.086109 6.139988 31.640511
432 1 1 31.150978 5.770384 31.580637
433 1 1 30.914294 5.575798 31.805397
434 1 1 30.629822 5.366549 31.665074
435 1 1 30.306504 5.166933 31.669417
436 1 1 30.025886 4.948431 31.803248
437 1 1 29.763964 4.684063 31.880099
438 1 1 29.890469 4.351317 31.747143
439 1 1 30.262605 4.352956 31.824032
440 1 1 30.370140 3.993605 31.884887
441 1 1 30.546228 3.657048 31.895949
442 1 1 30.862585 3.594051 32.096821
443 1 1 31.176667 3.398270 32.010666
444 1 1 31.444839 3.142337 31.927109
445 1 1 31.753688 2.998985 31.758401
446 1 1 31.721487 2.738994 31.483141
447 1 1 31.749958 2.843407 31.118878
448 1 1 31.910014 3.172236 31.015663
449 1 1 32.254265 3.314715 30.940888
450 1 1 32.588365 3.159922 31.034782
451 1 1 18.716624 26.906821 1.517775
452 1 1 18.630521 27.111531 1.826126
453 1 1 18.663757 27.167046 2.200577
454 1 1 18.475286 27.269534 2.514225
455 1 1 18.557068 27.635458 2.575959
456 1 1 18.449804 27.901506 2.825184
457 1 1 18.566610 28.250163 2.921073
458 1 1 18.488190 28.327162 3.284833
459 1 1 18.391211 28.242903 3.642458
460 1 1 18.442695 28.096472 3.989312
461 1 1 18.560577 28.138410 4.348122
462 1 1 18.747686 28.138259 4.678864
463 1 1 18.582338 28.186130 5.017639
464 1 1 18.582873 28.082402 5.383207
465 1 1 18.536167 27.711202 5.449759
466 1 1 18.353018 27.399855 5.331780
467 1 1 18.280388 27.155224 5.613348
468 1 1 18.466733 27.249680 5.930766
469 1 1 18.732941 27.027581 6.086346
470 1 1 18.912104 27.002821 6.420543
471 1 1 19.191159 26.748389 6.462885
472 1 1 19.399534 26.845214 6.765548
473 1 1 19.485427 27.182200 6.918724
474 1 1 19.783002 27.397098 7.017050
475 1 1 19.936179 27.726548 7.128404
476 1 1 20.171688 27.955173 6.936919
477 1 1 20.402689 27.767869 6.700369
478 1 1 20.357921 27.554794 6.388929
479 1 1 20.294266 27.231219 6.200123
480 1 1 20.449638 26.943704 6.006230
481 1 1 20.754273 26.777532 6.161098
482 1 1 20.730692 26.533984 6.451836
483 1 1 20.651456 26.743583 6.758739
484 1 1 20.578564 26.656896 7.121468
485 1 1 20.507889 26.479075 7.449774
486 1 1 20.161505 26.580446 7.568695
487 1 1 19.897836 26.400583 7.362472
488 1 1 19.623906 26.228355 7.163224
489 1 1 19.317852 26.003679 7.179099
490 1 1 19.214384 25.814967 7.492280
491 1 1 19.344238 25.693608 7.828151
492 1 1 19.324029 25.634335 8.202956
493 1 1 19.407195 25.280574 8.314027
494 1 1 19.747938 25.128621 8.241884
495 1 1 19.773068 25.117666 7.862875
496 1 1 19.987788 25.412147 7.755282
497 1 1 20.112465 25.769248 7.791818
498 1 1 20.392743 25.782111 8.048097
499 1 1 20.396512 25.977722 8.373860
500 1 1 20.245817 25.752462 8.640222
501 1 1 19.936227 25.534934 8.675375
502 1 1 20.020818 25.189616 8.809538
503 1 1 20.260405 25.049454 9.069063
504 1 1 20.465567 24.736447 9.003221
505 1 1 20.699850 24.574454 8.751687
506 1 1 20.544372 24.239823 8.660863
507 1 1 20.240508 24.044268 8.778442
508 1 1 19.948134 23.928722 8.991904
509 1 1 19.643430 23.830674 9.196702
510 1 1 19.281958 23.906641 9.285961
511 1 1 19.054460 23.826011 9.579463
512 1 1 18.734943 23.686343 9.428461
513 1 1 18.403146 23.603955 9.594363
514 1 1 18.197377 23.837548 9.812292
515 1 1 17.860286 23.942734 9.952669
516 1 1 17.601636 23.718497 10.117648
517 1 1 17.261747 23.871580 10.191414
518 1 1 16.895720 23.957896 10.136887
519 1 1 16.727003 24.279333 10.024579
520 1 1 16.458840 24.480227 10.203828
521 1 1 16.097179 24.532325 10.099486
522 1 1 15.868899 24.752513 9.890188
523 1 1 15.519403 24.775136 9.742741
524 1 1 15.474922 24.505217 9.478988
525 1 1 15.574623 24.250080 9.215616
526 1 1 15.637815 24.064373 8.890163
527 1 1 15.810281 24.035603 8.552780
528 1 1 15.749308 24.355603 8.357120
529 1 1 15.611403 24.587286 8.089342
530 1 1 15.355424 24.752688 7.862369
531 1 1 15.493198 25.082854 7.734273
532 1 1 15.217138 25.308748 7.603267
533 1 1 15.033439 25.313417 7.270652
534 1 1 14.822328 25.441689 6.981898
535 1 1 14.454133 25.451780 6.888461
536 1 1 14.102598 25.500091 6.752487
537 1 1 13.924491 25.218101 6.570390
538 1 1 13.973594 24.916997 6.343839
539 1 1 14.206032 24.647126 6.211392
540 1 1 14.557618 24.520318 6.142782
541 1 1 14.799461 24.693647 6.379149
542 1 1 15.013482 25.007645 6.379326
543 1 1 14.864969 25.352674 6.321891
544 1 1 14.860386 25.426425 5.949144
545 1 1 14.546117 25.453302 5.737218
546 1 1 14.345742 25.758148 5.843607
547 1 1 14.268571 26.125735 5.901270
548 1 1 13.918899 26.274493 5.901911
549 1 1 13.573116 26.119866 5.932323
550 1 1 13.289480 25.993022 5.713551
551 1 1 13.222454 25.846491 5.369406
552 1 1 13.212960 25.618631 5.065449
553 1 1 13.261137 25.636705 4.688949
554 1 1 13.152674 25.494951 4.353477
555 1 1 13.232144 25.124796 4.320767
556 1 1 13.212268 24.751981 4.391576
557 1 1 12.856093 24.685140 4.505905
558 1 1 12.782839 24.859286 4.835613
559 1 1 12.817943 24.881364 5.213343
560 1 1 12.560649 24.848711 5.491072
561 1 1 12.185851 24.786097 5.488633
562 1 1 11.957885 24.482088 5.485482
563 1 1 11.900211 24.225716 5.759976
564 1 1 12.081310 24.260195 6.092262
565 1 1 12.298475 24.266492 6.404031
566 1 1 12.341934 24.174419 6.770138
567 1 1 12.626067 24.381070 6.914926
568 1 1 12.843432 24.692763 6.915285
569 1 1 13.138304 24.638212 7.148682
570 1 1 13.415305 24.381294 7.189466
571 1 1 13.721238 24.226719 7.353514
572 1 1 14.060950 24.366117 7.451310
573 1 1 14.046477 24.736083 7.365780
574 1 1 13.761096 24.984423 7.329928
575 1 1 13.732105 25.236348 7.612936
576 1 1 13.580397 25.476432 7.865413
577 1 1 13.247775 25.658807 7.843001
578 1 1 13.053809 25.487173 7.564938
579 1 1 12.927222 25.759707 7.332342
580 1 1 12.762275 25.598767 7.030198
581 1 1 12.550988 25.309223 7.156381
582 1 1 12.192664 25.253059 7.043026
583 1 1 12.078254 24.891360 7.065023
584 1 1 11.835606 24.839028 6.777301
585 1 1 11.470416 24.908498 6.698501
586 1 1 11.195018 24.966735 6.443228
587 1 1 10.930081 25.057065 6.186228
588 1 1 10.707570 25.024181 5.879948
589 1 1 10.587767 24.805259 5.593381
590 1 1 10.406671 24.858297 5.263546
591 1 1 10.574078 24.725715 4.949226
592 1 1 10.675430 24.366613 5.021151
593 1 1 10.591381 24.063078 4.808542
594 1 1 10.365845 24.030952 4.504401
595 1 1 10.287641 23.986174 4.135241
596 1 1 10.150462 24.130035 3.811380
597 1 1 9.938179 24.253098 3.521222
598 1 1 9.845556 24.543469 3.294274
599 1 1 9.650221 24.850447 3.184690
600 1 1 9.324917 24.946046 3.013115
601 1 1 9.256657 25.307891 3.106969
602 1 1 9.048618 25.443328 2.819260
603 1 1 9.005807 25.604703 2.477901
604 1 1 9.175173 25.595003 2.137870
605 1 1 9.537045 25.668247 2.047959
606 1 1 9.779209 25.564870 1.773970
607 1 1 10.121552 25.506149 1.619849
608 1 1 10.393226 25.771235 1.601899
609 1 1 10.720083 25.839060 1.420338
610 1 1 10.981419 25.840576 1.144474
611 1 1 10.889486 25.715271 0.797707
612 1 1 10.572418 25.705935 0.588469
613 1 1 10.196923 25.740006 0.541114
614 1 1 10.047043 26.077112 0.450033
615 1 1 9.906226 26.380222 0.269216
616 1 1 9.755762 26.248464 33.876740
617 1 1 9.394384 26.143569 33.929686
618 1 1 9.424197 25.836231 0.220534
619 1 1 9.473806 25.695599 0.570050
620 1 1 9.563265 25.427769 0.824342
621 1 1 9.646109 25.592536 1.156590
622 1 1 9.842402 25.902687 1.254951
623 1 1 9.823332 26.277660 1.313533
624 1 1 9.570996 26.401972 1.569019
625 1 1 9.253573 26.223344 1.677346
626 1 1 8.941334 26.207704 1.893360
627 1 1 8.809625 26.346627 2.221617
628 1 1 8.507552 26.576759 2.207792
629 1 1 8.501567 26.932725 2.074929
630 1 1 8.508936 27.311606 2.103121
631 1 1 8.835780 27.504496 2.083977
632 1 1 9.000826 27.843831 2.128829
633 1 1 9.331988 27.955035 2.278380
634 1 1 9.682453 27.928482 2.422843
635 1 1 9.887598 27.724713 2.176278
636 1 1 10.128881 27.431151 2.174420
637 1 1 10.362505 27.363606 1.882431
638 1 1 10.570934 27.601481 1.671783
639 1 1 10.398206 27.747415 1.366385
640 1 1 10.487665 27.777569 0.998298
641 1 1 10.623364 28.069524 0.796436
642 1 1 10.776076 28.417345 0.806402
643 1 1 11.043013 28.468730 1.071928
644 1 1 11.192753 28.294864 1.374829
645 1 1 11.360297 28.110194 1.661579
646 1 1 11.702492 27.947443 1.633037
647 1 1 12.013843 28.149554 1.714351
648 1 1 12.263689 28.275699 1.457321
649 1 1 12.429185 28.320805 1.118239
650 1 1 12.294951 28.116169 0.827541
651 1 1 12.117702 28.216546 0.506750
652 1 1 12.152192 28.487257 0.242314
653 1 1 12.164962 28.718227 33.871469
654 1 1 12.313053 29.060516 33.798616
655 1 1 12.093632 29.217388 0.135649
656 1 1 11.738556 29.124206 0.233821
657 1 1 11.456833 29.250627 0.012349
658 1 1 11.563761 28.928771 33.771592
659 1 1 11.414771 28.839942 33.433493
660 1 1 11.199515 29.085758 33.239484
661 1 1 11.087007 29.162891 32.884811
662 1 1 11.073890 28.834021 32.694885
663 1 1 10.889952 28.516300 32.596805
664 1 1 10.547772 28.351669 32.611306
665 1 1 10.415943 27.995302 32.616150
666 1 1 10.560204 27.669613 32.483802
667 1 1 10.868582 27.458782 32.414141
668 1 1 11.226698 27.568084 32.349287
669 1 1 11.224059 27.722139 32.001925
670 1 1 11.329535 27.496769 31.714726
671 1 1 11.406953 27.561591 31.348386
672 1 1 11.266547 27.706105 31.026204
673 1 1 11.184233 28.047452 30.880923
674 1 1 10.993197 28.319884 30.697386
675 1 1 11.182534 28.480636 30.409792
676 1 1 10.950711 28.711119 30.216051
677 1 1 11.159516 29.010022 30.109010
678 1 1 11.329955 29.222582 30.373903
679 1 1 11.632743 29.404822 30.234233
680 1 1 11.636170 29.784552 30.220325
681 1 1 11.869230 29.974349 30.452832
682 1 1 12.006349 30.266607 30.252373
683 1 1 12.346200 30.152002 30.126805
684 1 1 12.378168 29.778440 30.064926
685 1 1 12.719413 29.626609 29.994933
686 1 1 13.085809 29.549875 29.929616
687 1 1 13.293802 29.257181 30.053990
688 1 1 13.494598 29.005684 29.851925
689 1 1 13.854359 29.116289 29.799596
690 1 1 13.872301 29.219321 29.434271
691 1 1 13.528074 29.250571 29.276374
692 1 1 13.377420 29.350559 28.942149
693 1 1 13.385038 29.201968 28.592489
694 1 1 13.393286 28.842630 28.469167
695 1 1 13.754779 28.728256 28.494495
696 1 1 13.882793 28.371323 28.469765
697 1 1 13.670223 28.090584 28.612592
698 1 1 13.599845 27.914179 28.941725
699 1 1 13.760343 27.573402 28.991844
700 1 1 13.606250 27.314199 28.760610
701 1 1 13.368475 27.078535 28.940401
702 1 1 13.308938 26.947553 29.292110
703 1 1 13.190695 27.174420 29.573090
704 1 1 13.068140 27.277229 29.917779
705 1 1 13.137565 27.177532 30.277836
706 1 1 12.897459 27.166286 30.572152
707 1 1 12.535031 27.209015 30.466226
708 1 1 12.419532 26.911449 30.260035
709 1 1 12.567688 26.571173 30.341655
710 1 1 12.350327 26.321671 30.154833
711 1 1 12.250546 25.957084 30.193821
712 1 1 11.991709 25.726663 30.037906
713 1 1 11.697285 25.616813 30.251559
714 1 1 11.425101 25.819757 30.422232
715 1 1 11.421191 25.875189 30.798147
716 1 1 11.783509 25.945915 30.888277
717 1 1 12.151180 25.922926 30.981497
718 1 1 12.418678 26.190059 30.942970
719 1 1 12.559751 26.527647 31.045599
720 1 1 12.471654 26.749300 31.341418
721 1 1 12.395260 26.672035 31.705553
722 1 1 12.097144 26.698247 31.939731
723 1 1 12.031845 27.068942 31.991894
724 1 1 12.368566 27.218630 32.084697
725 1 1 12.657771 27.400612 31.918434
726 1 1 12.984949 27.246319 32.034830
727 1 1 13.253270 27.350657 31.786804
728 1 1 13.203623 27.698105 31.641150
729 1 1 13.510682 27.877482 31.507216
730 1 1 13.868024 27.829176 31.387327
731 1 1 14.021963 27.488147 31.320981
732 1 1 14.295776 27.415258 31.067774
733 1 1 14.223773 27.159595 30.796017
734 1 1 13.902688 26.958389 30.767376
735 1 1 13.925263 26.589597 30.856164
736 1 1 13.821226 26.265487 31.025069
737 1 1 13.600882 26.056887 31.253837
738 1 1 13.641697 25.702872 31.385774
739 1 1 13.856215 25.403509 31.479389
740 1 1 13.677482 25.091445 31.602153
741 1 1 13.376018 24.871922 31.675150
742 1 1 13.060742 24.682408 31.770468
743 1 1 13.051892 24.682260 32.150364
744 1 1 12.896098 24.532947 32.463149
745 1 1 13.191815 24.464298 32.691707
746 1 1 13.378174 24.611414 32.988401
747 1 1 13.649530 24.448053 33.198352
748 1 1 13.986664 24.558462 33.062150
749 1 1 14.199748 24.579472 32.748218
750 1 1 14.562723 24.590681 32.860126
751 1 1 14.815603 24.508342 33.131552
752 1 1 15.132014 24.502944 33.341921
753 1 1 15.457418 24.636682 33.485541
754 1 1 15.823041 24.536234 33.460451
755 1 1 16.159027 24.712183 33.436885
756 1 1 16.443540 24.799507 33.200608
757 1 1 16.623559 25.130020 33.253088
758 1 1 16.997538 25.075726 33.292978
759 1 1 17.221975 24.769761 33.313317
760 1 1 17.216432 24.405249 33.206075
761 1 1 17.156591 24.362314 32.833281
762 1 1 17.470506 24.230920 32.664186
763 1 1 17.600940 24.036565 32.364832
764 1 1 17.634409 24.127596 31.997417
765 1 1 17.561935 24.102853 31.625214
766 1 1 17.216716 24.211052 31.508950
767 1 1 17.017071 24.056182 31.225124
768 1 1 17.118222 24.051190 30.858868
769 1 1 17.059129 23.699447 30.727779
770 1 1 17.095406 23.324278 30.679480
771 1 1 17.347093 23.080023 30.533217
772 1 1 17.379221 22.710907 30.448828
773 1 1 17.675219 22.503456 30.331571
774 1 1 17.927322 22.496656 30.615820
775 1 1 18.185379 22.771574 30.663006
776 1 1 18.551579 22.870303 30.686466
777 1 1 18.756771 23.040093 30.957515
778 1 1 18.977673 23.190089 31.227891
779 1 1 19.186992 23.500605 31.163349
780 1 1 19.509989 23.681437 31.077484
781 1 1 19.864540 23.697156 31.213301
782 1 1 19.856049 23.731974 31.591607
783 1 1 19.725972 23.511218 31.872226
784 1 1 19.615990 23.292891 32.163151
785 1 1 19.741040 22.980553 32.339807
786 1 1 19.640419 22.709009 32.585854
787 1 1 19.688075 22.471595 32.878708
788 1 1 19.445740 22.179413 32.896137
789 1 1 19.151198 22.027684 32.710064
790 1 1 18.843609 21.812701 32.650305
791 1 1 18.818648 21.498504 32.862572
792 1 1 18.868661 21.126647 32.922748
793 1 1 18.927628 20.820157 32.705984
794 1 1 18.658237 20.552258 32.713645
795 1 1 18.347245 20.354532 32.620969
796 1 1 18.153577 20.162672 32.356239
797 1 1 17.895156 19.892334 32.288892
798 1 1 17.565592 20.035522 32.165259
799 1 1 17.269686 19.929895 32.378994
800 1 1 16.906834 20.019735 32.310674
801 1 1 16.634724 19.932058 32.060337
802 1 1 16.561977 19.989180 31.691766
803 1 1 16.353196 19.953139 31.376311
804 1 1 16.366722 20.212726 31.099125
805 1 1 16.187182 20.122781 30.776518
806 1 1 16.340662 20.116906 30.428942
807 1 1 16.425273 20.350899 30.141735