LAMMPS data file for polymer system

27000 atoms
26940 bonds

1 atom types
1 bond types

0.0 33.93063421031722 xlo xhi
0.0 33.93063421031722 ylo yhi
0.0 33.93063421031722 zlo zhi

Masses

1 5.65487

Atoms

1 1 1 28.134818 18.290511 9.829693
2 1 1 27.999577 18.481429 10.129126
3 1 1 27.996845 18.861303 10.138524
4 1 1 28.009549 19.154976 9.897703
5 1 1 28.304240 19.264646 9.684327
6 1 1 28.553341 19.414258 9.929204
7 1 1 28.529064 19.584011 10.268312
8 1 1 28.582001 19.606162 10.643954
9 1 1 28.377178 19.870189 10.824888
10 1 1 28.053446 20.055481 10.752336
11 1 1 27.699516 20.189215 10.716992
12 1 1 27.507080 20.129650 10.394780
13 1 1 27.415647 19.760855 10.400247
14 1 1 27.368255 19.416765 10.554378
15 1 1 27.628090 19.177500 10.694513
16 1 1 27.524965 19.089665 11.049549
17 1 1 27.492487 19.024223 11.422460
18 1 1 27.565880 19.131125 11.779651
19 1 1 27.880328 18.948174 11.889430
20 1 1 27.988709 18.729794 12.180916
21 1 1 27.950241 18.855287 12.537527
22 1 1 28.040933 19.200485 12.667961
23 1 1 28.273743 19.500805 12.670716
24 1 1 28.609759 19.611192 12.531763
25 1 1 28.940903 19.448981 12.439943
26 1 1 29.277989 19.388875 12.604746
27 1 1 29.523203 19.361509 12.315746
28 1 1 29.450770 19.029490 12.145695
29 1 1 29.664258 18.715941 12.168282
30 1 1 30.018296 18.833236 12.095490
31 1 1 30.386152 18.738225 12.102868
32 1 1 30.496623 18.395291 12.223669
33 1 1 30.562687 18.230733 12.559758
34 1 1 30.547549 18.469503 12.854986
35 1 1 30.589224 18.464275 13.232657
36 1 1 30.550319 18.238349 13.535715
37 1 1 30.729915 17.930227 13.666888
38 1 1 30.890990 18.002733 14.003336
39 1 1 30.708348 17.800195 14.267949
40 1 1 30.896426 17.777806 14.597382
41 1 1 31.068573 17.463034 14.722618
42 1 1 31.301676 17.165327 14.684758
43 1 1 31.593747 16.978697 14.840526
44 1 1 31.601210 16.698039 15.096603
45 1 1 31.385604 16.741658 15.406460
46 1 1 31.376384 16.547158 15.732780
47 1 1 31.277358 16.731837 16.049777
48 1 1 31.077539 16.648949 16.362190
49 1 1 30.830472 16.542471 16.630556
50 1 1 30.578892 16.821083 16.689572
51 1 1 30.564923 17.157712 16.513829
52 1 1 30.247039 17.365871 16.518240
53 1 1 30.044319 17.277590 16.209191
54 1 1 29.994471 16.926209 16.073374
55 1 1 29.734363 16.790554 15.831833
56 1 1 29.491838 17.046792 15.690684
57 1 1 29.211796 17.052612 15.433891
58 1 1 28.895720 16.849076 15.489294
59 1 1 28.703234 16.806362 15.164448
60 1 1 28.446441 16.527363 15.189270
61 1 1 28.418438 16.250067 15.447578
62 1 1 28.723879 16.106306 15.622045
63 1 1 28.993592 15.882765 15.769300
64 1 1 29.286913 16.035715 15.956301
65 1 1 29.481106 16.095891 16.277343
66 1 1 29.302001 16.362087 16.480962
67 1 1 29.002743 16.508056 16.297829
68 1 1 28.640162 16.419541 16.226413
69 1 1 28.434231 16.101477 16.197647
70 1 1 28.070190 16.040621 16.288039
71 1 1 27.733637 16.132239 16.438830
72 1 1 27.443083 16.169848 16.680831
73 1 1 27.414337 16.507635 16.852508
74 1 1 27.423525 16.816798 17.073265
75 1 1 27.685448 16.857330 17.345577
76 1 1 28.020172 16.679073 17.369743
77 1 1 28.228821 16.585078 17.673108
78 1 1 28.150335 16.764043 17.999010
79 1 1 28.356858 17.081136 18.033657
80 1 1 28.730905 17.075147 18.100385
81 1 1 29.062285 17.187723 18.248420
82 1 1 29.315083 17.294908 17.985733
83 1 1 29.235676 17.123277 17.656132
84 1 1 29.086483 16.777631 17.707808
85 1 1 28.823029 16.536738 17.838050
86 1 1 28.973128 16.190815 17.885034
87 1 1 28.919921 15.903394 17.642222
88 1 1 28.658551 15.752957 17.411020
89 1 1 28.413922 15.773275 17.120944
90 1 1 28.081192 15.937193 17.203536
91 1 1 27.810683 16.080890 17.428427
92 1 1 27.452746 16.096242 17.301754
93 1 1 27.274741 16.354664 17.516072
94 1 1 27.274492 16.629462 17.778534
95 1 1 27.531961 16.688103 18.051794
96 1 1 27.381790 16.624196 18.394962
97 1 1 27.288339 16.519680 18.748152
98 1 1 27.161353 16.175589 18.847529
99 1 1 27.178522 15.957524 19.158259
100 1 1 26.842450 15.793293 19.225217
101 1 1 26.494613 15.670369 19.316318
102 1 1 26.133395 15.786995 19.298424
103 1 1 25.987012 16.033916 19.049422
104 1 1 25.886300 16.175383 18.711422
105 1 1 25.679429 16.471617 18.593737
106 1 1 25.829527 16.714640 18.343116
107 1 1 26.153930 16.907201 18.297477
108 1 1 26.374271 17.095363 18.543333
109 1 1 26.264561 17.374018 18.777245
110 1 1 26.209463 17.698873 18.587949
111 1 1 26.134857 17.593647 18.230511
112 1 1 26.116035 17.630853 17.852806
113 1 1 26.198882 17.704042 17.489240
114 1 1 26.409679 17.455533 17.293772
115 1 1 26.586815 17.153504 17.441425
116 1 1 26.345674 16.909150 17.604342
117 1 1 26.550191 16.615800 17.732865
118 1 1 26.584116 16.249601 17.828509
119 1 1 26.307349 15.996143 17.768848
120 1 1 26.097946 15.940111 18.080955
121 1 1 26.013413 15.614319 18.257345
122 1 1 26.094758 15.244162 18.285045
123 1 1 26.299301 14.959679 18.432122
124 1 1 26.552278 14.742003 18.613835
125 1 1 26.879829 14.906611 18.713906
126 1 1 27.000303 14.793642 19.056140
127 1 1 27.159060 14.529953 19.278995
128 1 1 27.232764 14.566893 19.649944
129 1 1 27.046729 14.361654 19.910074
130 1 1 27.074105 14.398879 20.287254
131 1 1 26.974689 14.701815 20.494006
132 1 1 27.270381 14.912901 20.605402
133 1 1 27.284787 15.257177 20.765609
134 1 1 27.099165 15.551794 20.917743
135 1 1 26.766316 15.602379 21.093962
136 1 1 26.653242 15.954056 21.004867
137 1 1 26.635332 16.085091 20.648624
138 1 1 26.286180 16.005469 20.521529
139 1 1 26.004950 16.260935 20.514667
140 1 1 25.852571 16.378519 20.187017
141 1 1 26.100470 16.336537 19.902089
142 1 1 26.416734 16.178132 19.763219
143 1 1 26.747411 16.343202 19.674875
144 1 1 26.834519 16.619586 19.920688
145 1 1 26.629782 16.891595 20.089490
146 1 1 26.599520 17.269637 20.065652
147 1 1 26.791841 17.564990 20.207705
148 1 1 26.939396 17.907423 20.280966
149 1 1 27.220737 18.112364 20.128501
150 1 1 27.553672 18.283480 20.063127
151 1 1 27.869603 18.428026 19.909197
152 1 1 28.080055 18.697510 20.074993
153 1 1 28.418236 18.854163 20.149110
154 1 1 28.709660 18.666277 20.304581
155 1 1 28.584831 18.399143 20.544282
156 1 1 28.832817 18.292913 20.811899
157 1 1 28.770970 18.266235 21.185882
158 1 1 28.632087 18.014716 21.434578
159 1 1 28.662765 17.659863 21.567009
160 1 1 28.404151 17.382009 21.549225
161 1 1 28.189875 17.331333 21.858931
162 1 1 27.815654 17.265316 21.859258
163 1 1 27.599040 17.533588 21.699544
164 1 1 27.672842 17.875452 21.550944
165 1 1 27.629926 18.251966 21.579148
166 1 1 27.907156 18.511828 21.583105
167 1 1 28.090430 18.833672 21.668116
168 1 1 28.456722 18.853223 21.568879
169 1 1 28.748640 19.091636 21.520474
170 1 1 28.887269 19.396715 21.699663
171 1 1 29.174961 19.633629 21.625467
172 1 1 29.137020 19.997644 21.727708
173 1 1 28.840322 20.229374 21.676025
174 1 1 28.488275 20.134777 21.783330
175 1 1 28.290855 19.961453 22.057892
176 1 1 28.466272 19.999073 22.392875
177 1 1 28.791606 20.193269 22.363789
178 1 1 29.162019 20.108778 22.371242
179 1 1 29.401164 19.837285 22.487436
180 1 1 29.688860 19.848392 22.239427
181 1 1 29.762312 19.548667 22.017685
182 1 1 29.949020 19.218392 22.039109
183 1 1 29.964591 18.903562 21.826884
184 1 1 30.126968 18.688823 21.558703
185 1 1 30.078702 18.325564 21.458139
186 1 1 29.740150 18.180765 21.552030
187 1 1 29.620587 17.859996 21.387070
188 1 1 29.649852 17.483288 21.346637
189 1 1 29.904077 17.299175 21.560814
190 1 1 29.829477 17.250762 21.930261
191 1 1 29.930470 17.541330 22.153355
192 1 1 29.732429 17.629180 22.465544
193 1 1 29.720800 17.764827 22.820318
194 1 1 29.526611 17.686447 23.137410
195 1 1 29.574710 17.727916 23.512066
196 1 1 29.295494 17.962393 23.619114
197 1 1 29.374557 18.104343 23.962624
198 1 1 29.323372 18.393596 24.203690
199 1 1 29.539687 18.705203 24.181127
200 1 1 29.801759 18.699250 23.906022
201 1 1 29.938143 19.052992 23.880205
202 1 1 30.308750 19.136627 23.887655
203 1 1 30.592119 18.937257 23.731598
204 1 1 30.747855 19.131418 23.444460
205 1 1 30.933568 19.462573 23.428761
206 1 1 31.221040 19.548431 23.195547
207 1 1 31.211446 19.913499 23.090507
208 1 1 30.902257 20.133947 23.104820
209 1 1 30.671194 20.012996 23.381191
210 1 1 30.772434 20.005616 23.747382
211 1 1 30.649207 19.931816 24.099190
212 1 1 30.283491 19.913825 24.200817
213 1 1 29.928323 19.982574 24.317134
214 1 1 29.628862 19.841542 24.503770
215 1 1 29.367043 19.575603 24.575377
216 1 1 29.045066 19.389757 24.496686
217 1 1 28.729960 19.188545 24.428702
218 1 1 28.687455 19.147338 24.053342
219 1 1 28.666256 19.426652 23.796566
220 1 1 28.649733 19.324749 23.430858
221 1 1 28.719396 19.264175 23.062242
222 1 1 28.581509 19.547729 22.850146
223 1 1 28.219599 19.598833 22.954113
224 1 1 27.864186 19.539295 22.833542
225 1 1 27.590782 19.307741 22.960161
226 1 1 27.551899 18.930763 22.932304
227 1 1 27.327889 18.695481 23.129438
228 1 1 27.223278 18.582505 23.476847
229 1 1 26.916467 18.756975 23.617657
230 1 1 26.920382 19.042857 23.867970
231 1 1 27.004054 19.407057 23.798996
232 1 1 27.353175 19.556965 23.792499
233 1 1 27.658691 19.723290 23.639543
234 1 1 28.030050 19.799903 23.664494
235 1 1 28.084653 20.142339 23.819917
236 1 1 28.262392 20.315505 24.107706
237 1 1 28.233129 20.693916 24.089035
238 1 1 28.468197 20.973165 24.194693
239 1 1 28.238351 21.253207 24.309353
240 1 1 28.331767 21.589869 24.458793
241 1 1 28.608594 21.795361 24.618604
242 1 1 28.750887 22.040461 24.871742
243 1 1 29.069818 21.911842 25.033422
244 1 1 29.300641 22.210429 25.077767
245 1 1 29.430075 22.429347 25.360117
246 1 1 29.798662 22.478315 25.438515
247 1 1 30.138900 22.472206 25.269397
248 1 1 30.395497 22.340888 25.517012
249 1 1 30.737795 22.203658 25.608662
250 1 1 30.759367 21.829130 25.548132
251 1 1 30.753332 21.449386 25.560699
252 1 1 31.085899 21.334289 25.417339
253 1 1 31.256719 21.556748 25.160956
254 1 1 31.245579 21.923921 25.063694
255 1 1 31.030258 22.228010 24.989086
256 1 1 30.914653 22.567877 25.113691
257 1 1 30.948778 22.917784 25.257915
258 1 1 31.046112 23.196709 25.018902
259 1 1 30.929250 23.539611 24.904179
260 1 1 30.771513 23.817607 25.109696
261 1 1 30.765853 23.847075 25.488509
262 1 1 30.787776 23.529015 25.695288
263 1 1 31.058764 23.271227 25.762449
264 1 1 31.096973 23.166517 26.125734
265 1 1 31.347438 22.888918 26.193604
266 1 1 31.724325 22.908002 26.148972
267 1 1 31.944722 23.207362 26.227767
268 1 1 32.101180 23.536667 26.334907
269 1 1 32.217191 23.768740 26.057268
270 1 1 32.036032 23.769964 25.723232
271 1 1 31.955662 23.656481 25.369591
272 1 1 31.687365 23.527233 25.133558
273 1 1 31.738275 23.429528 24.769880
274 1 1 31.752305 23.728158 24.535310
275 1 1 31.607646 23.912530 24.236177
276 1 1 31.369926 23.796926 23.963184
277 1 1 31.351891 23.803330 23.583667
278 1 1 31.094862 24.008885 23.393711
279 1 1 30.815702 24.180951 23.585707
280 1 1 30.479117 24.308924 23.707089
281 1 1 30.236879 24.596891 23.654216
282 1 1 30.014735 24.905011 23.643521
283 1 1 29.908926 25.269857 23.633943
284 1 1 29.801665 25.633179 23.604068
285 1 1 30.015911 25.861744 23.819141
286 1 1 30.114678 25.703257 24.150090
287 1 1 30.429068 25.542349 24.290329
288 1 1 30.555216 25.490403 24.644996
289 1 1 30.442646 25.580525 24.996573
290 1 1 30.239245 25.899941 24.964934
291 1 1 30.006805 26.078455 24.723057
292 1 1 29.655769 26.200844 24.801761
293 1 1 29.555297 26.120995 25.159434
294 1 1 29.534557 25.747231 25.224780
295 1 1 29.727740 25.494986 25.433235
296 1 1 29.900787 25.597846 25.755531
297 1 1 29.841781 25.778567 26.084557
298 1 1 29.835767 26.140271 26.200892
299 1 1 29.972094 26.194348 26.551450
300 1 1 29.722809 26.372873 26.775917
301 1 1 29.740030 26.584667 27.090952
302 1 1 29.630004 26.709346 27.432638
303 1 1 29.731443 26.431721 27.671458
304 1 1 29.926488 26.164966 27.483844
305 1 1 30.290721 26.072943 27.540996
306 1 1 30.426493 25.850917 27.817891
307 1 1 30.570163 25.898364 28.166470
308 1 1 30.751781 26.231862 28.180392
309 1 1 30.530925 26.484626 28.358530
310 1 1 30.540180 26.853868 28.447830
311 1 1 30.288545 26.925220 28.723491
312 1 1 30.099759 27.220576 28.870205
313 1 1 30.207527 27.481964 29.124100
314 1 1 30.484921 27.456488 29.382563
315 1 1 30.746387 27.728418 29.336853
316 1 1 31.087322 27.625216 29.204519
317 1 1 31.249341 27.669140 28.863608
318 1 1 31.457724 27.760410 28.559229
319 1 1 31.615774 28.104321 28.525378
320 1 1 31.343622 28.352305 28.619386
321 1 1 31.202111 28.696792 28.694908
322 1 1 31.014101 28.893010 28.960521
323 1 1 31.000639 28.746270 29.310788
324 1 1 30.812941 28.489796 29.519091
325 1 1 30.596338 28.396740 29.817124
326 1 1 30.247320 28.301285 29.933206
327 1 1 29.958131 28.507148 29.797595
328 1 1 29.776717 28.633170 30.106799
329 1 1 29.397252 28.627314 30.126090
330 1 1 29.274578 28.829429 30.423581
331 1 1 29.357387 29.192030 30.345718
332 1 1 29.585785 29.421588 30.544559
333 1 1 29.422613 29.763060 30.578789
334 1 1 29.059284 29.850853 30.647235
335 1 1 28.694434 29.957048 30.649835
336 1 1 28.461812 30.138347 30.889456
337 1 1 28.552883 30.506872 30.872267
338 1 1 28.533698 30.872109 30.769146
339 1 1 28.672556 30.995605 30.437683
340 1 1 28.446301 30.994297 30.132385
341 1 1 28.124205 31.048306 29.938125
342 1 1 27.893569 30.747211 29.961549
343 1 1 27.984429 30.527656 29.665001
344 1 1 28.157176 30.196556 29.735223
345 1 1 28.421518 29.951699 29.614523
346 1 1 28.639782 29.640965 29.600192
347 1 1 28.643810 29.394994 29.889816
348 1 1 28.343485 29.369927 30.121281
349 1 1 28.355083 29.398780 30.500007
350 1 1 28.216959 29.182221 30.780049
351 1 1 28.049460 28.864700 30.655451
352 1 1 27.986354 28.580531 30.899717
353 1 1 27.926857 28.488001 31.263445
354 1 1 27.916777 28.654100 31.605073
355 1 1 27.677986 28.928033 31.716155
356 1 1 27.630439 29.272138 31.870204
357 1 1 27.645311 29.605851 32.051351
358 1 1 27.397530 29.595509 32.339271
359 1 1 27.474473 29.619200 32.710645
360 1 1 27.167395 29.693366 32.921838
361 1 1 27.279064 29.824910 33.260403
362 1 1 27.380293 30.082149 33.521134
363 1 1 27.563783 30.408726 33.457273
364 1 1 27.474045 30.611301 33.148549
365 1 1 27.776464 30.785376 32.998079
366 1 1 27.673177 31.015530 32.713895
367 1 1 27.446839 30.952885 32.415153
368 1 1 27.229226 30.772131 32.161436
369 1 1 27.404062 30.449999 32.061120
370 1 1 27.186695 30.141203 32.018736
371 1 1 26.810810 30.196552 32.025550
372 1 1 26.575158 29.927217 31.897774
373 1 1 26.476380 29.562609 31.856490
374 1 1 26.348193 29.522811 31.500985
375 1 1 26.180502 29.182070 31.487732
376 1 1 25.941852 29.191242 31.192161
377 1 1 25.624156 28.985042 31.161328
378 1 1 25.618611 28.743031 30.868412
379 1 1 25.750523 28.407712 30.747746
380 1 1 25.880406 28.065581 30.645387
381 1 1 25.852517 27.827198 30.939998
382 1 1 25.592385 27.574691 31.053888
383 1 1 25.545275 27.331981 31.342458
384 1 1 25.581760 27.364027 31.719342
385 1 1 25.945623 27.454583 31.781012
386 1 1 26.181846 27.161840 31.727161
387 1 1 26.440247 26.944225 31.901152
388 1 1 26.784086 26.800226 31.974904
389 1 1 27.119631 26.947875 31.874859
390 1 1 27.460799 26.932274 31.708241
391 1 1 27.834400 26.881858 31.755993
392 1 1 28.135805 26.650564 31.748370
393 1 1 28.408488 26.752740 31.992509
394 1 1 28.331218 26.584421 32.324319
395 1 1 28.398979 26.560246 32.697447
396 1 1 28.201272 26.741356 32.966725
397 1 1 28.003469 27.022290 32.804398
398 1 1 27.699796 27.190189 32.959293
399 1 1 27.536409 27.493941 32.799795
400 1 1 27.347683 27.798165 32.927193
401 1 1 27.559524 28.094265 32.818344
402 1 1 27.925454 28.128285 32.914977
403 1 1 28.089117 28.412870 32.723597
404 1 1 28.432984 28.502630 32.589067
405 1 1 28.665437 28.552265 32.885549
406 1 1 28.866046 28.874181 32.908491
407 1 1 28.760962 29.232533 32.838197
408 1 1 28.777415 29.610540 32.873416
409 1 1 28.906180 29.880568 32.639099
410 1 1 29.282511 29.878809 32.691751
411 1 1 29.361140 29.758124 33.043394
412 1 1 29.454285 30.053184 33.263991
413 1 1 29.623527 30.223714 33.558400
414 1 1 29.511389 30.581349 33.621032
415 1 1 29.211726 30.808164 33.677218
416 1 1 29.167550 31.076585 33.411891
417 1 1 29.169751 31.423384 33.256565
418 1 1 28.920542 31.638235 33.446654
419 1 1 29.094900 31.757914 33.762369
420 1 1 28.901100 31.967026 0.082959
421 1 1 29.047386 32.283363 0.234390
422 1 1 29.249413 32.519535 0.015740
423 1 1 29.600871 32.380252 33.907936
424 1 1 29.509696 32.522671 33.567636
425 1 1 29.162252 32.601946 33.435735
426 1 1 29.070303 32.608514 33.067085
427 1 1 28.758619 32.772633 32.924543
428 1 1 28.423311 32.659113 32.786407
429 1 1 28.320115 32.303970 32.873725
430 1 1 28.211536 32.096814 32.574231
431 1 1 27.933816 32.208116 32.339959
432 1 1 27.683743 32.187967 32.054552
433 1 1 27.644754 32.372212 31.724500
434 1 1 27.322272 32.573025 31.733405
435 1 1 26.996255 32.728406 31.851600
436 1 1 26.914318 32.852206 32.201400
437 1 1 27.092995 32.689548 32.494686
438 1 1 27.028871 32.663445 32.868326
439 1 1 27.093480 32.577099 33.232702
440 1 1 27.066103 32.443631 33.587437
441 1 1 27.068786 32.561042 0.018199
442 1 1 27.092031 32.926463 0.119823
443 1 1 26.744344 33.078912 0.103302
444 1 1 26.502876 33.023658 33.745769
445 1 1 26.178116 33.122459 33.574979
446 1 1 25.906237 32.926395 33.395980
447 1 1 25.662852 32.737388 33.173628
448 1 1 25.399882 32.486183 33.283821
449 1 1 25.107470 32.580875 33.507269
450 1 1 24.967958 32.323502 33.749541
451 1 1 10.261307 11.041338 27.567839
452 1 1 10.282800 11.061929 27.946672
453 1 1 10.507782 10.792675 28.092567
454 1 1 10.864790 10.662704 28.099831
455 1 1 10.882417 10.286290 28.050825
456 1 1 10.588560 10.058552 27.972189
457 1 1 10.694649 9.776539 27.740641
458 1 1 10.530007 9.434078 27.744276
459 1 1 10.778956 9.207414 27.568072
460 1 1 11.096964 9.151861 27.367611
461 1 1 11.270587 9.443664 27.197005
462 1 1 11.155282 9.789818 27.303223
463 1 1 11.416531 10.065611 27.293889
464 1 1 11.777364 9.948047 27.274436
465 1 1 11.826119 9.696907 26.993453
466 1 1 12.094418 9.731684 26.726608
467 1 1 12.389272 9.893125 26.903803
468 1 1 12.602054 10.183981 27.024329
469 1 1 12.963485 10.077996 26.973983
470 1 1 13.211706 10.293724 27.164372
471 1 1 13.096522 10.637114 27.279332
472 1 1 12.814721 10.856013 27.409990
473 1 1 12.767587 11.230497 27.454035
474 1 1 12.974080 11.539832 27.531964
475 1 1 13.329992 11.672974 27.532451
476 1 1 13.606929 11.830645 27.325459
477 1 1 13.423625 12.020698 27.052184
478 1 1 13.190333 12.310134 27.130935
479 1 1 13.150896 12.603693 27.368986
480 1 1 13.192812 12.951672 27.222175
481 1 1 12.888486 13.161187 27.133356
482 1 1 12.687985 13.255745 27.441996
483 1 1 12.833839 13.413680 27.755337
484 1 1 13.037467 13.692740 27.913645
485 1 1 12.996515 14.025124 27.734080
486 1 1 13.186094 14.324772 27.597439
487 1 1 13.332532 14.520493 27.888384
488 1 1 13.600723 14.668856 28.113021
489 1 1 13.745601 14.810601 28.434453
490 1 1 13.865607 15.103578 28.644604
491 1 1 13.581994 15.353645 28.682424
492 1 1 13.493591 15.700662 28.555284
493 1 1 13.666494 15.877813 28.266976
494 1 1 13.736428 16.249488 28.303948
495 1 1 13.909310 16.579801 28.377470
496 1 1 14.005361 16.837525 28.115262
497 1 1 14.013831 17.173649 28.292316
498 1 1 13.867872 17.492974 28.437670
499 1 1 13.598086 17.584231 28.689240
500 1 1 13.392248 17.420503 28.963510
501 1 1 13.138361 17.137764 28.963486
502 1 1 13.057238 16.953836 28.641012
503 1 1 12.827282 16.652119 28.618955
504 1 1 12.977660 16.434396 28.346222
505 1 1 12.831143 16.084342 28.326363
506 1 1 12.481752 16.031087 28.465969
507 1 1 12.175310 16.070206 28.244693
508 1 1 11.931546 15.781252 28.283224
509 1 1 11.762060 15.651759 28.597717
510 1 1 11.424931 15.632132 28.771955
511 1 1 11.058577 15.670378 28.678563
512 1 1 10.728734 15.646184 28.491433
513 1 1 10.388101 15.543420 28.624884
514 1 1 10.088082 15.581810 28.394852
515 1 1 10.099298 15.389699 28.067182
516 1 1 10.202311 15.032842 28.147438
517 1 1 10.275892 14.826453 27.836972
518 1 1 10.449161 14.554628 27.635752
519 1 1 10.589981 14.214778 27.540507
520 1 1 10.858702 14.275753 27.278837
521 1 1 10.773606 14.570365 27.054421
522 1 1 10.735584 14.946642 27.091439
523 1 1 10.786166 15.289385 26.935336
524 1 1 10.463202 15.484387 26.889851
525 1 1 10.194189 15.726417 26.773864
526 1 1 10.326274 16.065187 26.663462
527 1 1 10.478631 16.151266 26.326153
528 1 1 10.415202 16.299015 25.981847
529 1 1 10.264404 16.043332 25.744600
530 1 1 10.230450 15.688457 25.876172
531 1 1 10.174351 15.464288 26.177836
532 1 1 10.009004 15.143989 26.057549
533 1 1 9.778275 14.843885 26.024351
534 1 1 9.663739 14.601084 26.293292
535 1 1 9.337730 14.727368 26.442191
536 1 1 9.004643 14.838079 26.296604
537 1 1 8.669306 14.696108 26.405201
538 1 1 8.464478 14.783018 26.713247
539 1 1 8.474176 15.142737 26.835347
540 1 1 8.664761 15.273698 27.136887
541 1 1 8.754077 15.228662 27.503485
542 1 1 8.505543 15.326323 27.773843
543 1 1 8.226516 15.479116 27.981685
544 1 1 7.897435 15.630936 28.095951
545 1 1 7.630951 15.748290 27.851791
546 1 1 7.407466 15.934794 27.607515
547 1 1 7.071914 15.797482 27.493716
548 1 1 6.746086 15.758637 27.302073
549 1 1 6.576181 16.014137 27.077903
550 1 1 6.786725 16.244836 26.861456
551 1 1 7.080167 16.186379 26.627204
552 1 1 7.201912 16.507248 26.464044
553 1 1 7.466035 16.753953 26.346672
554 1 1 7.498938 16.801914 25.971150
555 1 1 7.808991 17.017708 25.929915
556 1 1 8.020033 17.208874 26.181543
557 1 1 8.109792 17.537461 26.349987
558 1 1 8.148241 17.871320 26.172618
559 1 1 8.505962 17.993618 26.211071
560 1 1 8.526192 18.317055 26.012628
561 1 1 8.254151 18.493480 25.814468
562 1 1 8.136725 18.603193 25.470122
563 1 1 7.936143 18.428024 25.199045
564 1 1 7.684738 18.642275 25.011183
565 1 1 7.597931 18.488310 24.674792
566 1 1 7.649409 18.768541 24.423355
567 1 1 7.875180 18.792500 24.118636
568 1 1 7.767177 18.780191 23.754516
569 1 1 7.533275 19.046281 23.617091
570 1 1 7.231702 19.259842 23.528514
571 1 1 7.057138 19.541706 23.342827
572 1 1 6.704601 19.601783 23.471312
573 1 1 6.684634 19.830836 23.773861
574 1 1 6.485684 19.764855 24.090824
575 1 1 6.270931 19.694300 24.396280
576 1 1 6.300362 19.533490 24.739316
577 1 1 6.600318 19.351113 24.884799
578 1 1 6.929242 19.161780 24.865773
579 1 1 7.168886 19.356333 25.087403
580 1 1 7.028065 19.679927 25.228316
581 1 1 6.927272 20.043464 25.273938
582 1 1 6.885072 20.419269 25.236651
583 1 1 6.666344 20.563541 25.511866
584 1 1 6.314482 20.567780 25.368427
585 1 1 6.311780 20.394316 25.030340
586 1 1 6.240345 20.616538 24.730483
587 1 1 6.008413 20.696107 24.440179
588 1 1 5.669974 20.524101 24.456702
589 1 1 5.303992 20.455669 24.380716
590 1 1 5.148238 20.742940 24.186767
591 1 1 4.944987 21.014125 24.014872
592 1 1 4.726260 21.321694 24.059148
593 1 1 4.606911 21.661612 24.180025
594 1 1 4.638886 22.036271 24.125183
595 1 1 4.500227 22.315926 24.341901
596 1 1 4.630068 22.442864 24.675709
597 1 1 4.680716 22.607541 25.014407
598 1 1 4.588388 22.972847 25.063677
599 1 1 4.336608 23.120135 25.307220
600 1 1 4.062071 23.379578 25.265762
601 1 1 3.952116 23.743322 25.265570
602 1 1 3.756088 23.906698 24.984001
603 1 1 3.464428 23.825672 24.754285
604 1 1 3.163552 24.038295 24.847372
605 1 1 3.117811 24.179180 25.197313
606 1 1 3.210515 24.300221 25.545386
607 1 1 3.358369 24.300841 25.895442
608 1 1 3.527838 23.998995 26.052189
609 1 1 3.855855 23.911678 26.223011
610 1 1 4.229057 23.910427 26.294558
611 1 1 4.453811 24.001215 26.587206
612 1 1 4.670242 24.057877 26.894365
613 1 1 4.985932 24.206632 27.044740
614 1 1 5.225236 24.486675 26.951417
615 1 1 5.433024 24.804563 26.938323
616 1 1 5.397129 24.998697 27.263013
617 1 1 5.271290 25.347855 27.181446
618 1 1 5.416601 25.670729 27.319421
619 1 1 5.634233 25.618981 27.626600
620 1 1 5.443648 25.513574 27.937994
621 1 1 5.261579 25.183177 27.983698
622 1 1 5.375271 24.894743 28.203425
623 1 1 5.238538 24.557203 28.311918
624 1 1 5.033090 24.276745 28.465326
625 1 1 4.944948 23.927766 28.343486
626 1 1 5.252781 23.705998 28.364886
627 1 1 5.379706 23.463423 28.628414
628 1 1 5.536080 23.646339 28.922503
629 1 1 5.441727 23.988596 29.057992
630 1 1 5.582375 24.204314 29.337428
631 1 1 5.548653 24.069444 29.691084
632 1 1 5.560316 24.015588 30.067068
633 1 1 5.384142 24.312574 30.225694
634 1 1 5.017030 24.409631 30.211267
635 1 1 4.660513 24.435189 30.082261
636 1 1 4.502756 24.689191 29.847748
637 1 1 4.578787 25.019125 29.675231
638 1 1 4.652973 25.376943 29.779456
639 1 1 4.360650 25.597000 29.882031
640 1 1 4.279628 25.919619 29.698312
641 1 1 4.352237 26.188228 29.439513
642 1 1 4.106550 26.296954 29.170781
643 1 1 3.938937 25.979664 29.045750
644 1 1 3.761755 25.659405 29.147930
645 1 1 4.025668 25.390863 29.199258
646 1 1 3.948595 25.023537 29.258681
647 1 1 3.987474 24.648685 29.307414
648 1 1 4.065843 24.315658 29.472795
649 1 1 4.281372 24.009913 29.405958
650 1 1 4.121968 23.840011 29.105752
651 1 1 3.794652 23.664798 29.024730
652 1 1 3.533271 23.545213 28.776175
653 1 1 3.372735 23.482684 28.437474
654 1 1 3.356095 23.813672 28.251544
655 1 1 3.056144 24.032133 28.169664
656 1 1 2.821110 24.248560 28.375378
657 1 1 2.899864 24.587425 28.528246
658 1 1 2.772414 24.901079 28.355683
659 1 1 2.575302 25.166683 28.168596
660 1 1 2.282705 25.355772 28.016832
661 1 1 2.029723 25.634374 27.964094
662 1 1 2.078597 25.904692 28.226657
663 1 1 1.902026 26.236996 28.279539
664 1 1 1.798151 26.385862 27.945699
665 1 1 1.533143 26.448344 27.680620
666 1 1 1.234312 26.260241 27.540201
667 1 1 1.091956 26.240118 27.188449
668 1 1 0.797407 26.339711 26.969995
669 1 1 0.560648 26.635453 26.999690
670 1 1 0.310490 26.920684 27.021232
671 1 1 0.185507 26.946072 27.379191
672 1 1 0.075032 26.874709 27.735706
673 1 1 0.228987 26.604828 27.954480
674 1 1 33.819355 26.586500 27.786304
675 1 1 33.705043 26.591556 28.148668
676 1 1 33.551901 26.590245 28.496441
677 1 1 33.433837 26.255443 28.631971
678 1 1 33.641580 26.097690 28.908298
679 1 1 33.682437 25.732014 29.003230
680 1 1 0.099635 25.806920 29.136654
681 1 1 0.197859 26.078404 28.889574
682 1 1 0.460803 26.134012 28.620932
683 1 1 0.643017 26.384559 28.400877
684 1 1 0.855970 26.590617 28.638766
685 1 1 1.023607 26.467605 28.956832
686 1 1 0.984648 26.119242 29.103549
687 1 1 1.182860 25.813461 28.995800
688 1 1 1.531500 25.665015 28.967274
689 1 1 1.817595 25.554785 28.742776
690 1 1 1.905104 25.253571 28.528273
691 1 1 2.213833 25.091331 28.679152
692 1 1 2.418175 25.307907 28.915244
693 1 1 2.515120 25.082742 29.205593
694 1 1 2.707612 24.972710 29.514202
695 1 1 2.640511 24.662383 29.722996
696 1 1 2.405729 24.673469 30.021584
697 1 1 2.361939 24.837499 30.361550
698 1 1 2.510737 24.813529 30.710383
699 1 1 2.462449 25.021583 31.024678
700 1 1 2.329198 25.348543 31.165184
701 1 1 2.070475 25.624363 31.127962
702 1 1 1.712610 25.499081 31.153201
703 1 1 1.597208 25.338458 31.477674
704 1 1 1.801654 25.278493 31.792326
705 1 1 2.041060 25.410628 32.056192
706 1 1 2.371584 25.270477 32.180738
707 1 1 2.580844 24.987328 32.323696
708 1 1 2.487341 24.873099 32.673851
709 1 1 2.680604 24.578478 32.816148
710 1 1 3.050730 24.622305 32.890211
711 1 1 3.379257 24.708751 32.719926
712 1 1 3.593907 24.395280 32.727728
713 1 1 3.972474 24.421661 32.707958
714 1 1 4.132597 24.272656 33.018696
715 1 1 4.117970 24.500943 33.322128
716 1 1 4.192901 24.872800 33.344668
717 1 1 4.336859 25.209807 33.445176
718 1 1 4.218546 25.438987 33.724244
719 1 1 4.294608 25.703832 0.055280
720 1 1 4.457415 26.010770 0.209175
721 1 1 4.293794 26.343888 0.290786
722 1 1 4.067814 26.259217 33.927883
723 1 1 4.236962 26.449443 33.645743
724 1 1 4.560828 26.645686 33.677359
725 1 1 4.848584 26.461139 33.843306
726 1 1 5.036809 26.705091 0.135064
727 1 1 5.042557 26.813272 0.499295
728 1 1 5.002382 26.995935 0.830082
729 1 1 5.172986 26.877706 1.148384
730 1 1 5.432993 26.741836 1.389911
731 1 1 5.650217 26.458828 1.520756
732 1 1 5.981397 26.437001 1.335706
733 1 1 6.239557 26.458893 1.057724
734 1 1 6.594957 26.350953 1.137973
735 1 1 6.620196 26.034527 1.346871
736 1 1 6.567417 25.673294 1.452344
737 1 1 6.327403 25.601519 1.738073
738 1 1 6.468558 25.646952 2.087946
739 1 1 6.537299 25.376572 2.345956
740 1 1 6.896180 25.393342 2.469742
741 1 1 7.138792 25.450102 2.756654
742 1 1 7.380939 25.640463 2.979201
743 1 1 7.554080 25.928927 2.802536
744 1 1 7.600850 26.286437 2.922533
745 1 1 7.677002 26.657384 2.890922
746 1 1 7.957133 26.822524 3.087531
747 1 1 7.956493 26.705642 3.449108
748 1 1 7.934337 27.013847 3.670284
749 1 1 7.686551 27.211115 3.880255
750 1 1 7.440469 27.377972 3.643606
751 1 1 7.077650 27.378906 3.756574
752 1 1 6.729422 27.241553 3.691221
753 1 1 6.390326 27.320896 3.539173
754 1 1 6.121296 27.241872 3.282701
755 1 1 5.806310 27.416914 3.403301
756 1 1 5.798267 27.796328 3.422800
757 1 1 5.788283 28.047378 3.707886
758 1 1 6.114276 27.993472 3.895563
759 1 1 6.390567 28.121290 3.668130
760 1 1 6.480364 28.323026 3.358874
761 1 1 6.786937 28.509697 3.234108
762 1 1 6.976040 28.613815 3.546837
763 1 1 6.964031 28.960806 3.701280
764 1 1 7.081374 29.252320 3.487621
765 1 1 7.304234 29.548713 3.404647
766 1 1 7.665749 29.532799 3.520638
767 1 1 8.005906 29.611713 3.670524
768 1 1 8.257162 29.330905 3.621364
769 1 1 8.589984 29.498114 3.546059
770 1 1 8.559601 29.871571 3.482763
771 1 1 8.576548 30.142468 3.748710
772 1 1 8.368776 30.394201 3.943291
773 1 1 8.338312 30.421051 4.321115
774 1 1 8.561702 30.378199 4.625517
775 1 1 8.923132 30.467048 4.548874
776 1 1 9.282980 30.511276 4.435064
777 1 1 9.447213 30.229870 4.239518
778 1 1 9.226080 29.922546 4.207083
779 1 1 9.206045 29.619390 3.978839
780 1 1 9.193024 29.413508 3.659710
781 1 1 9.502462 29.254612 3.506739
782 1 1 9.536864 29.141872 3.145482
783 1 1 9.535516 29.188713 2.768383
784 1 1 9.837118 29.298494 2.564951
785 1 1 9.803205 29.664051 2.466880
786 1 1 9.959271 29.862733 2.183033
787 1 1 10.193078 29.796752 1.890834
788 1 1 10.205251 29.997460 1.568393
789 1 1 10.054317 30.108318 1.237743
790 1 1 10.167436 29.982039 0.897658
791 1 1 10.425188 29.950436 0.620232
792 1 1 10.684129 30.228102 0.604381
793 1 1 10.677978 30.432877 0.924427
794 1 1 10.697040 30.569345 1.278564
795 1 1 10.747655 30.380715 1.604534