LAMMPS data file for polymer system

27000 atoms
26940 bonds

1 atom types
1 bond types

0.0 39.23724047085697 xlo xhi
0.0 39.23724047085697 ylo yhi
0.0 39.23724047085697 zlo zhi

Masses

1 5.65487

Atoms

1 1 1 1.714041 10.280278 5.285026
2 1 1 1.418450 10.518985 5.278300
3 1 1 1.181631 10.630421 5.553797
4 1 1 0.917366 10.868875 5.686854
5 1 1 0.557961 10.962769 5.766929
6 1 1 0.185617 11.014862 5.822121
7 1 1 39.206412 10.709846 5.889322
8 1 1 38.952599 10.523500 6.102053
9 1 1 0.058684 10.492171 6.261886
10 1 1 0.352456 10.257327 6.316165
11 1 1 0.596977 10.084668 6.550255
12 1 1 0.629154 10.133867 6.925681
13 1 1 0.311087 10.260949 7.090251
14 1 1 0.037101 10.001362 7.046133
15 1 1 38.897096 10.045833 7.035722
16 1 1 39.068809 10.333334 7.215327
17 1 1 38.976203 10.356803 7.583123
18 1 1 38.964437 10.627071 7.849987
19 1 1 0.043671 10.542468 7.657410
20 1 1 0.313163 10.295950 7.762308
21 1 1 0.294107 9.931906 7.869587
22 1 1 0.293657 9.602570 7.680014
23 1 1 0.490667 9.279860 7.642002
24 1 1 0.484705 8.978221 7.410963
25 1 1 0.402748 8.612019 7.351139
26 1 1 0.378246 8.236873 7.406502
27 1 1 0.051564 8.123835 7.564302
28 1 1 0.013019 7.818827 7.787651
29 1 1 0.039737 7.725873 8.155136
30 1 1 39.073262 7.932887 8.400177
31 1 1 39.228313 8.237688 8.234481
32 1 1 0.016254 8.216203 8.613036
33 1 1 0.191732 8.552644 8.592660
34 1 1 0.552052 8.621048 8.493211
35 1 1 0.767082 8.644450 8.805644
36 1 1 0.729477 8.431825 9.118336
37 1 1 0.666983 8.297501 9.468267
38 1 1 0.860635 7.974176 9.516847
39 1 1 0.939457 7.754908 9.817027
40 1 1 1.222081 7.667196 10.055419
41 1 1 1.474443 7.684077 10.339018
42 1 1 1.766562 7.566697 10.551829
43 1 1 2.120319 7.692453 10.610496
44 1 1 2.330971 7.875907 10.352872
45 1 1 2.707859 7.891155 10.306794
46 1 1 2.961491 8.068596 10.527215
47 1 1 3.215077 8.312946 10.670000
48 1 1 3.559113 8.180715 10.762488
49 1 1 3.803788 7.937203 10.603628
50 1 1 4.103197 7.945072 10.369764
51 1 1 4.352165 7.777241 10.136854
52 1 1 4.395974 7.450866 9.947223
53 1 1 4.249228 7.104804 9.891483
54 1 1 4.143346 7.067230 9.528472
55 1 1 4.400708 7.199725 9.282282
56 1 1 4.722581 7.005007 9.335971
57 1 1 5.009926 7.206128 9.189742
58 1 1 5.139076 7.355836 8.865230
59 1 1 5.151542 7.735086 8.844883
60 1 1 5.491826 7.876306 8.937964
61 1 1 5.836162 7.719014 8.971004
62 1 1 6.140590 7.945963 8.956249
63 1 1 6.297537 8.167466 8.690346
64 1 1 6.433119 8.261158 8.347943
65 1 1 6.507470 8.232265 7.976410
66 1 1 6.851481 8.097782 7.887134
67 1 1 7.207937 7.969275 7.915865
68 1 1 7.539054 7.996776 7.731460
69 1 1 7.855083 8.136909 7.573701
70 1 1 8.177765 8.209245 7.386501
71 1 1 8.365382 8.528375 7.472271
72 1 1 8.597121 8.829431 7.480133
73 1 1 8.898062 8.956393 7.674337
74 1 1 9.273386 8.992932 7.627463
75 1 1 9.522277 8.827219 7.392959
76 1 1 9.531872 8.458403 7.301949
77 1 1 9.449443 8.261195 6.987761
78 1 1 9.319144 8.103618 6.667461
79 1 1 9.192922 8.352667 6.409696
80 1 1 9.178891 8.460802 6.045677
81 1 1 9.355095 8.670450 5.782239
82 1 1 9.487907 8.675236 5.426236
83 1 1 9.734713 8.901401 5.246414
84 1 1 10.066964 9.085563 5.236718
85 1 1 10.357509 9.301923 5.351487
86 1 1 10.249112 9.526892 5.637911
87 1 1 10.280692 9.867389 5.803635
88 1 1 10.615501 10.004137 5.687001
89 1 1 10.941804 10.137286 5.544883
90 1 1 11.133527 10.011083 5.242038
91 1 1 11.038735 9.740229 4.992934
92 1 1 11.024709 9.362243 4.956470
93 1 1 10.858627 9.077244 4.767811
94 1 1 10.641544 8.806422 4.922506
95 1 1 10.757630 8.446323 4.887122
96 1 1 10.808158 8.246263 4.568025
97 1 1 11.146488 8.202114 4.400742
98 1 1 11.245749 8.295298 4.045969
99 1 1 11.590367 8.183727 3.931122
100 1 1 11.874147 8.146997 3.681082
101 1 1 11.974667 7.781341 3.656770
102 1 1 12.129042 7.559042 3.923512
103 1 1 12.427816 7.490291 4.148028
104 1 1 12.389558 7.326199 4.488630
105 1 1 12.379757 6.972675 4.627644
106 1 1 12.212759 6.642060 4.712526
107 1 1 11.988670 6.417056 4.503821
108 1 1 11.636091 6.480123 4.630747
109 1 1 11.299415 6.596870 4.498765
110 1 1 11.311997 6.683277 4.128933
111 1 1 10.978022 6.811265 4.000560
112 1 1 10.820907 7.148771 3.924374
113 1 1 10.817155 7.176260 3.545388
114 1 1 11.182650 7.215059 3.448907
115 1 1 11.391730 7.208219 3.131671
116 1 1 11.471612 6.905295 2.916598
117 1 1 11.505038 6.550511 3.048550
118 1 1 11.346858 6.229099 3.175330
119 1 1 11.079840 5.961630 3.135810
120 1 1 10.841840 5.937014 3.431021
121 1 1 10.466734 5.878834 3.413399
122 1 1 10.091082 5.885685 3.356492
123 1 1 9.769476 5.686874 3.318487
124 1 1 9.664681 5.467835 3.026187
125 1 1 9.813699 5.124744 3.093139
126 1 1 10.094743 5.088310 3.346293
127 1 1 10.442083 5.055129 3.496805
128 1 1 10.715702 4.791440 3.496201
129 1 1 10.711727 4.553287 3.792288
130 1 1 10.610809 4.199313 3.886722
131 1 1 10.374419 4.087750 4.162537
132 1 1 10.014903 3.966029 4.144322
133 1 1 9.842175 3.731200 3.900558
134 1 1 9.746342 3.400281 3.740219
135 1 1 9.702699 3.022930 3.730155
136 1 1 9.761208 2.766916 4.004806
137 1 1 9.550890 2.825656 4.315798
138 1 1 9.201604 2.963150 4.374918
139 1 1 9.049613 2.988605 4.027570
140 1 1 8.793606 3.009241 3.747509
141 1 1 8.814600 2.738488 3.481705
142 1 1 9.060395 2.453874 3.427120
143 1 1 9.157482 2.344499 3.076390
144 1 1 9.271796 2.489286 2.744172
145 1 1 9.457808 2.715023 2.501597
146 1 1 9.404946 3.075818 2.608520
147 1 1 9.344087 3.315235 2.897268
148 1 1 9.301537 3.562850 3.182358
149 1 1 9.084277 3.835395 3.333743
150 1 1 8.741286 3.918155 3.474838
151 1 1 8.632901 3.632752 3.701108
152 1 1 8.568394 3.561092 4.068673
153 1 1 8.623312 3.296542 4.335876
154 1 1 8.442866 2.963093 4.361385
155 1 1 8.173770 2.739035 4.213786
156 1 1 7.937550 2.589516 3.956407
157 1 1 8.002678 2.588075 3.582032
158 1 1 8.098528 2.254850 3.426552
159 1 1 7.776981 2.052368 3.429428
160 1 1 7.598517 1.844182 3.692505
161 1 1 7.511864 1.675710 4.021911
162 1 1 7.714010 1.379826 4.148360
163 1 1 8.032036 1.182784 4.081774
164 1 1 7.990723 0.823342 3.965607
165 1 1 7.807208 0.578234 4.190649
166 1 1 8.071593 0.341836 4.327093
167 1 1 8.145485 0.016905 4.144447
168 1 1 8.482265 39.120974 4.029364
169 1 1 8.290230 38.832876 3.872768
170 1 1 8.158817 38.811413 3.516861
171 1 1 8.041416 39.139764 3.365854
172 1 1 8.354210 0.098910 3.455255
173 1 1 7.982498 0.020128 3.460135
174 1 1 7.625309 0.141611 3.414769
175 1 1 7.489973 0.337234 3.711107
176 1 1 7.393803 0.137375 4.019664
177 1 1 7.218695 0.236599 4.341987
178 1 1 7.424697 39.156442 4.307030
179 1 1 7.749527 38.974266 4.231548
180 1 1 7.769849 38.687392 4.479923
181 1 1 7.557034 38.437266 4.671095
182 1 1 7.796970 38.234348 4.884765
183 1 1 7.992265 38.435473 5.141296
184 1 1 7.845316 38.589356 5.456139
185 1 1 7.951125 38.951785 5.499152
186 1 1 7.708095 39.211005 5.633844
187 1 1 8.048092 0.127794 5.705098
188 1 1 8.054395 0.493021 5.809833
189 1 1 7.957033 0.714102 5.516501
190 1 1 7.581676 0.747436 5.467550
191 1 1 7.391573 0.427441 5.390974
192 1 1 7.292348 0.242920 5.073946
193 1 1 7.122435 39.163748 4.949798
194 1 1 6.860935 39.180111 4.674571
195 1 1 6.602160 38.903353 4.703572
196 1 1 6.286408 38.691927 4.703737
197 1 1 6.183887 38.611806 4.346708
198 1 1 6.475509 38.567435 4.107150
199 1 1 6.689080 38.511325 3.797895
200 1 1 7.027511 38.355805 3.873244
201 1 1 7.315525 38.148794 3.736881
202 1 1 7.655862 38.315309 3.765918
203 1 1 7.916700 38.086336 3.611210
204 1 1 8.084455 37.797749 3.429617
205 1 1 8.284625 37.955230 3.147603
206 1 1 8.325502 37.929711 2.770671
207 1 1 8.575506 37.813006 2.509371
208 1 1 8.868909 37.586031 2.426924
209 1 1 8.940526 37.271271 2.226432
210 1 1 9.141780 37.207023 1.910569
211 1 1 9.510769 37.116274 1.913945
212 1 1 9.733979 37.278748 2.175057
213 1 1 9.999942 37.190669 2.431778
214 1 1 10.041244 36.818499 2.496461
215 1 1 10.068951 36.541329 2.237987
216 1 1 10.363152 36.585270 2.001524
217 1 1 10.731705 36.584400 2.094089
218 1 1 10.810688 36.403295 2.418685
219 1 1 10.908141 36.067709 2.567965
220 1 1 10.831384 36.027669 2.937972
221 1 1 10.463274 36.066296 3.024014
222 1 1 10.385263 35.957802 3.379743
223 1 1 10.590557 36.187185 3.602537
224 1 1 10.907155 36.365074 3.714436
225 1 1 11.191895 36.116114 3.751066
226 1 1 11.200696 35.765238 3.896699
227 1 1 11.346732 35.474621 4.093206
228 1 1 11.708048 35.568187 4.164593
229 1 1 11.988153 35.449405 3.936926
230 1 1 12.155535 35.223838 3.680992
231 1 1 12.518481 35.254195 3.572602
232 1 1 12.687795 35.348127 3.245631
233 1 1 13.059555 35.425044 3.262322
234 1 1 13.307707 35.327000 3.532891
235 1 1 13.481819 35.403621 3.861850
236 1 1 13.757013 35.643419 3.967515
237 1 1 14.109404 35.534365 3.876259
238 1 1 14.423786 35.689028 3.729141
239 1 1 14.762071 35.694965 3.902138
240 1 1 14.862218 35.414752 4.138467
241 1 1 15.237118 35.443247 4.193586
242 1 1 15.348135 35.288605 4.522464
243 1 1 15.262571 35.474336 4.842750
244 1 1 15.129326 35.759330 5.055880
245 1 1 14.946447 35.826663 5.382103
246 1 1 14.907654 35.952472 5.738568
247 1 1 14.572575 35.925262 5.915717
248 1 1 14.227735 36.083273 5.892967
249 1 1 13.949156 35.924250 6.096697
250 1 1 14.037730 35.593879 6.262256
251 1 1 14.073506 35.394777 6.583937
252 1 1 13.941678 35.543468 6.907838
253 1 1 13.611031 35.719493 6.971773
254 1 1 13.349093 35.990788 7.018548
255 1 1 13.323705 36.229240 7.313329
256 1 1 13.623364 36.443943 7.405564
257 1 1 13.854895 36.743887 7.434318
258 1 1 14.054387 36.857643 7.131559
259 1 1 14.361569 36.950494 6.928046
260 1 1 14.689943 37.003723 7.111723
261 1 1 14.874951 37.076876 7.435483
262 1 1 14.747507 36.864040 7.723336
263 1 1 14.896203 36.559509 7.895238
264 1 1 14.789562 36.216464 7.771353
265 1 1 14.997238 36.137373 7.463108
266 1 1 15.365137 36.175283 7.550361
267 1 1 15.646412 35.950001 7.670911
268 1 1 15.981287 35.892723 7.500683
269 1 1 16.266380 36.108731 7.372377
270 1 1 16.393787 35.988863 7.035036
271 1 1 16.465918 35.961333 6.662962
272 1 1 16.528170 36.288464 6.479904
273 1 1 16.231620 36.516268 6.547457
274 1 1 16.138015 36.754192 6.266333
275 1 1 16.220701 36.996057 5.985149
276 1 1 16.367385 37.136768 5.664081
277 1 1 16.498540 37.177363 5.309751
278 1 1 16.267293 36.996303 5.068624
279 1 1 16.299926 36.617792 5.060599
280 1 1 16.475365 36.361193 4.842016
281 1 1 16.795703 36.189149 4.731635
282 1 1 17.072665 36.178486 4.991593
283 1 1 17.335932 35.934997 5.117305
284 1 1 17.585289 35.681231 4.983798
285 1 1 17.741351 35.561899 4.658522
286 1 1 17.971475 35.429180 4.386808
287 1 1 17.846957 35.497593 4.034367
288 1 1 17.940296 35.244010 3.767190
289 1 1 18.210234 34.976553 3.767694
290 1 1 18.360603 34.628270 3.789800
291 1 1 18.587551 34.594644 4.092725
292 1 1 18.521421 34.764984 4.425908
293 1 1 18.424568 34.579240 4.742954
294 1 1 18.471589 34.251020 4.928589
295 1 1 18.454169 33.917407 5.109695
296 1 1 18.102384 33.836791 5.228642
297 1 1 17.851567 33.714569 4.970663
298 1 1 17.704215 34.016619 4.793313
299 1 1 17.681785 34.276961 4.517416
300 1 1 17.621793 34.646612 4.452927
301 1 1 17.479596 34.852650 4.167045
302 1 1 17.367829 35.047771 3.860718
303 1 1 17.149145 34.979978 3.557434
304 1 1 16.896584 34.702065 3.615551
305 1 1 16.526462 34.788145 3.615535
306 1 1 16.207564 34.740406 3.816594
307 1 1 16.097948 34.512530 4.100243
308 1 1 16.170946 34.675716 4.435567
309 1 1 16.234746 34.580801 4.797949
310 1 1 16.252023 34.242417 4.969991
311 1 1 15.922277 34.193492 5.152402
312 1 1 15.729586 33.867130 5.124869
313 1 1 15.645963 33.705509 4.791273
314 1 1 15.643386 33.410161 4.552185
315 1 1 15.615678 33.034892 4.499218
316 1 1 15.333682 32.780181 4.499017
317 1 1 15.077256 32.892442 4.756006
318 1 1 15.059849 33.250564 4.881886
319 1 1 14.910700 33.487135 5.139158
320 1 1 14.570943 33.626640 5.041674
321 1 1 14.364990 33.755969 4.749685
322 1 1 14.095990 33.914448 4.533066
323 1 1 14.006940 33.970732 4.167961
324 1 1 14.126540 33.823543 3.838672
325 1 1 14.076909 33.554654 3.574786
326 1 1 13.968352 33.366376 3.263071
327 1 1 13.618578 33.221026 3.293598
328 1 1 13.622915 32.938839 3.548062
329 1 1 13.928485 32.729013 3.631729
330 1 1 14.148186 32.497790 3.838290
331 1 1 14.333515 32.641471 4.137303
332 1 1 14.627373 32.541337 4.356439
333 1 1 14.668814 32.185629 4.483540
334 1 1 14.976038 32.138065 4.702061
335 1 1 15.295684 32.045251 4.518726
336 1 1 15.607148 31.828488 4.498640
337 1 1 15.792141 31.845851 4.167164
338 1 1 15.661350 32.025309 3.858800
339 1 1 15.855059 32.056766 3.533396
340 1 1 15.990722 31.879331 3.225967
341 1 1 15.923765 31.616565 2.959751
342 1 1 16.043151 31.736124 2.619380
343 1 1 15.826941 31.996222 2.446170
344 1 1 15.876773 32.069509 2.076649
345 1 1 15.584215 32.187779 1.864936
346 1 1 15.316811 32.453330 1.913694
347 1 1 15.446002 32.735734 2.132686
348 1 1 15.602646 33.070757 2.219991
349 1 1 15.758045 33.276157 1.940595
350 1 1 16.125043 33.327985 2.024419
351 1 1 16.295821 33.202731 2.339928
352 1 1 16.399328 32.846686 2.423105
353 1 1 16.275852 32.632840 2.711937
354 1 1 16.182983 32.843532 3.014235
355 1 1 16.233725 33.218559 2.979883
356 1 1 16.332047 33.473727 3.243743
357 1 1 16.157958 33.552152 3.572289
358 1 1 15.818672 33.664421 3.701441
359 1 1 15.525584 33.765530 3.481721
360 1 1 15.364781 33.663870 3.152772
361 1 1 14.997897 33.716733 3.069097
362 1 1 14.687829 33.591845 2.888374
363 1 1 14.431451 33.708039 2.633092
364 1 1 14.295327 34.049872 2.538116
365 1 1 14.459803 34.327620 2.337606
366 1 1 14.769610 34.502489 2.471173
367 1 1 14.933112 34.805016 2.632866
368 1 1 15.216188 34.876364 2.876130
369 1 1 15.427553 35.040875 3.145686
370 1 1 15.538512 34.755435 3.370657
371 1 1 15.774513 34.467122 3.445352
372 1 1 16.081928 34.243888 3.437430
373 1 1 16.403801 34.307951 3.245874
374 1 1 16.340122 34.415124 2.886905
375 1 1 16.510145 34.656361 2.647537
376 1 1 16.838010 34.836451 2.714409
377 1 1 17.021862 34.666675 3.000372
378 1 1 17.184865 34.343752 3.116777
379 1 1 16.974603 34.041640 3.022340
380 1 1 16.865971 34.096003 2.662280
381 1 1 16.821554 34.181627 2.294726
382 1 1 17.081102 34.215387 2.019236
383 1 1 17.277930 34.282642 1.701217
384 1 1 17.655930 34.321561 1.700139
385 1 1 17.839969 34.612772 1.860531
386 1 1 18.101229 34.774728 1.637117
387 1 1 18.343174 34.949540 1.872283
388 1 1 18.568176 34.910403 2.175998
389 1 1 18.716568 34.716095 2.466900
390 1 1 19.096367 34.727459 2.471773
391 1 1 19.426335 34.543867 2.429170
392 1 1 19.770440 34.704131 2.446693
393 1 1 20.014198 34.458032 2.290432
394 1 1 19.819811 34.153284 2.173203
395 1 1 19.522437 34.019890 1.977820
396 1 1 19.197432 33.880293 2.116689
397 1 1 18.948370 33.852971 2.402384
398 1 1 18.769918 33.581922 2.600089
399 1 1 18.479941 33.649403 2.836223
400 1 1 18.325294 33.542269 3.166384
401 1 1 18.534023 33.310574 3.383524
402 1 1 18.701716 32.988956 3.270208
403 1 1 18.695160 32.923951 2.895867
404 1 1 18.689951 32.980522 2.520137
405 1 1 18.338285 32.892720 2.406026
406 1 1 18.148674 32.565752 2.366784
407 1 1 17.801577 32.484245 2.235329
408 1 1 17.593703 32.187019 2.348666
409 1 1 17.526848 31.855520 2.175348
410 1 1 17.414645 31.585325 2.417846
411 1 1 17.735562 31.460015 2.578188
412 1 1 17.695039 31.429637 2.954798
413 1 1 17.998097 31.488444 3.176379
414 1 1 18.295584 31.718053 3.119981
415 1 1 18.174873 32.071418 3.049539
416 1 1 17.852719 32.201829 2.895884
417 1 1 17.542607 32.413237 2.955359
418 1 1 17.253539 32.184368 3.047329
419 1 1 16.944099 32.030034 3.204899
420 1 1 16.815085 31.787436 3.467389
421 1 1 16.939864 31.496130 3.677081
422 1 1 17.240587 31.532568 3.906512
423 1 1 17.570279 31.720853 3.890643
424 1 1 17.943959 31.686139 3.950294
425 1 1 18.115886 31.489148 4.226039
426 1 1 18.168840 31.166731 4.420058
427 1 1 17.925999 30.890285 4.514958
428 1 1 17.879025 30.513339 4.525219
429 1 1 17.700538 30.204809 4.656944
430 1 1 17.382874 30.119213 4.466779
431 1 1 17.436981 30.253905 4.115595
432 1 1 17.279968 30.574399 3.985096
433 1 1 17.266446 30.902735 4.175917
434 1 1 17.172600 30.828021 4.536487
435 1 1 17.004524 31.014569 4.821707
436 1 1 16.723101 31.253959 4.910554
437 1 1 16.456890 31.293170 5.178871
438 1 1 16.368771 31.036870 5.445227
439 1 1 16.098192 30.770678 5.427094
440 1 1 15.916778 30.436792 5.430118
441 1 1 15.645154 30.222041 5.586650
442 1 1 15.672014 30.106667 5.947714
443 1 1 16.009766 30.092723 6.121290
444 1 1 16.045266 30.342256 6.405672
445 1 1 16.321224 30.602181 6.379473
446 1 1 16.640326 30.778440 6.486744
447 1 1 16.750596 31.119805 6.361403
448 1 1 16.847370 31.221912 6.008403
449 1 1 17.171361 31.234009 5.810203
450 1 1 17.282433 31.324358 5.458209
451 1 1 36.100823 14.770479 11.658166
452 1 1 36.400665 14.537480 11.643806
453 1 1 36.740734 14.549182 11.474644
454 1 1 37.052289 14.658306 11.286426
455 1 1 37.259013 14.895095 11.499959
456 1 1 37.441022 14.671740 11.747719
457 1 1 37.572650 14.335875 11.867170
458 1 1 37.862990 14.092468 11.837920
459 1 1 38.222124 14.187528 11.758007
460 1 1 38.584252 14.073658 11.775244
461 1 1 38.765973 13.841369 12.014868
462 1 1 38.977963 13.531357 12.072769
463 1 1 0.084886 13.372178 12.097539
464 1 1 0.114735 13.002103 12.178496
465 1 1 39.053323 12.769644 12.212691
466 1 1 38.884246 12.830804 11.877919
467 1 1 38.747318 13.026445 11.582326
468 1 1 38.406927 13.161832 11.481310
469 1 1 38.140795 12.911603 11.585996
470 1 1 37.831158 12.695515 11.543210
471 1 1 37.663858 12.469887 11.799145
472 1 1 37.784770 12.358722 12.141815
473 1 1 37.639667 12.601462 12.395632
474 1 1 37.419262 12.472382 12.676986
475 1 1 37.069394 12.619373 12.696615
476 1 1 36.816476 12.515477 12.432724
477 1 1 36.481722 12.687229 12.486026
478 1 1 36.536168 13.026446 12.648406
479 1 1 36.732285 13.276733 12.440332
480 1 1 36.734864 13.628017 12.585220
481 1 1 36.620199 13.983243 12.656398
482 1 1 36.731573 14.345703 12.631520
483 1 1 36.502182 14.638609 12.554149
484 1 1 36.279081 14.672358 12.248393
485 1 1 35.998886 14.420489 12.198872
486 1 1 35.943254 14.203029 12.505492
487 1 1 35.877975 13.893914 12.716648
488 1 1 35.963565 13.918554 13.086063
489 1 1 36.216724 13.898871 13.368770
490 1 1 36.357049 14.133510 13.632690
491 1 1 36.670532 13.983158 13.786062
492 1 1 37.033662 13.939988 13.889372
493 1 1 37.326944 14.162814 13.982830
494 1 1 37.596225 14.402927 13.863527
495 1 1 37.917032 14.589976 13.944123
496 1 1 38.167472 14.318060 14.032109
497 1 1 38.519305 14.459297 14.057897
498 1 1 38.734404 14.676091 14.284023
499 1 1 38.707425 15.043176 14.378473
500 1 1 38.810410 15.266362 14.088676
501 1 1 38.698842 15.575061 13.897215
502 1 1 38.730118 15.745727 13.559140
503 1 1 39.089949 15.690275 13.450299
504 1 1 0.090731 15.765929 13.163905
505 1 1 0.307780 15.704741 12.858052
506 1 1 0.639346 15.533531 12.929827
507 1 1 0.995705 15.458351 12.821403
508 1 1 1.204522 15.637963 12.559611
509 1 1 1.106600 15.937756 12.347632
510 1 1 1.106112 16.113556 12.010743
511 1 1 1.030221 16.485154 12.034310
512 1 1 0.720394 16.566776 12.238625
513 1 1 0.491342 16.833791 12.094965
514 1 1 0.569964 16.929265 11.735656
515 1 1 0.657764 16.891363 11.367886
516 1 1 0.866715 17.174458 11.224372
517 1 1 1.050499 17.329969 10.930365
518 1 1 0.865797 17.652183 10.849974
519 1 1 0.625295 17.905340 10.700072
520 1 1 0.320538 18.124706 10.641745
521 1 1 0.040560 18.369217 10.720653
522 1 1 0.003316 18.669349 10.490580
523 1 1 39.096849 19.011704 10.571457
524 1 1 38.780101 19.034725 10.362793
525 1 1 38.442624 18.980221 10.196844
526 1 1 38.289214 19.121565 9.879217
527 1 1 38.390113 18.927966 9.568188
528 1 1 38.211039 18.972376 9.235983
529 1 1 37.873037 19.145048 9.254396
530 1 1 37.808361 19.515845 9.202174
531 1 1 37.577334 19.620274 8.919118
532 1 1 37.277840 19.837525 8.832481
533 1 1 37.149410 19.868947 8.476225
534 1 1 37.442633 19.822097 8.239105
535 1 1 37.632135 19.614402 7.983465
536 1 1 37.460613 19.275317 7.982394
537 1 1 37.325705 19.048818 7.708719
538 1 1 37.177301 19.197596 7.392109
539 1 1 36.799597 19.167196 7.420661
540 1 1 36.570521 18.864132 7.411911
541 1 1 36.340295 18.850443 7.713919
542 1 1 35.995307 18.787232 7.567675
543 1 1 35.658454 18.866946 7.724442
544 1 1 35.451429 19.127830 7.541465
545 1 1 35.211053 19.016722 7.268932
546 1 1 35.264049 19.055051 6.894603
547 1 1 35.617388 19.097679 6.761433
548 1 1 35.876791 18.879385 6.589801
549 1 1 36.047677 18.548827 6.666806
550 1 1 36.325615 18.318946 6.786410
551 1 1 36.384015 18.326031 7.161829
552 1 1 36.301480 18.069648 7.429887
553 1 1 36.254331 17.991676 7.798801
554 1 1 36.327752 18.037311 8.168837
555 1 1 36.107418 18.221063 8.418013
556 1 1 36.134091 18.593286 8.346332
557 1 1 35.956185 18.919417 8.426260
558 1 1 35.694005 19.185233 8.496993
559 1 1 35.384790 19.059170 8.678360
560 1 1 35.308770 19.244330 9.001372
561 1 1 35.470400 19.295617 9.341439
562 1 1 35.614866 19.646996 9.333529
563 1 1 35.566226 20.004983 9.451339
564 1 1 35.491089 19.993415 9.823657
565 1 1 35.139577 20.060289 9.951590
566 1 1 35.134932 20.035403 10.330746
567 1 1 34.943214 19.811045 10.570136
568 1 1 34.603955 19.707672 10.433690
569 1 1 34.415707 19.603855 10.120346
570 1 1 34.236799 19.322784 9.937613
571 1 1 33.911402 19.272411 10.127295
572 1 1 33.694843 19.583977 10.106594
573 1 1 33.389188 19.595337 9.881104
574 1 1 33.215031 19.694802 9.558341
575 1 1 33.077975 19.983220 9.352353
576 1 1 33.180584 20.318454 9.205760
577 1 1 33.554004 20.338238 9.138187
578 1 1 33.753213 20.402320 9.455376
579 1 1 34.119438 20.329860 9.526288
580 1 1 34.308973 20.471504 9.228944
581 1 1 34.096925 20.520791 8.917486
582 1 1 34.184231 20.838837 8.728740
583 1 1 34.379056 21.083599 8.513022
584 1 1 34.554982 21.403321 8.618984
585 1 1 34.511810 21.448140 8.993854
586 1 1 34.241841 21.483709 9.258904
587 1 1 34.150374 21.768762 9.492952
588 1 1 33.969708 22.101894 9.520921
589 1 1 34.177483 22.419274 9.498571
590 1 1 34.259640 22.781897 9.577027
591 1 1 34.425319 23.101708 9.455904
592 1 1 34.726723 23.332519 9.472694
593 1 1 34.998095 23.521703 9.285701
594 1 1 35.362130 23.571053 9.382876
595 1 1 35.689837 23.389839 9.447452
596 1 1 35.876976 23.277736 9.136306
597 1 1 36.197389 23.088908 9.214275
598 1 1 36.440490 23.140201 8.926750
599 1 1 36.534740 23.120414 8.559156
600 1 1 36.823704 23.024600 8.331735
601 1 1 36.879006 23.017686 7.955845
602 1 1 36.667785 22.731845 7.821381
603 1 1 36.548982 22.416399 7.645941
604 1 1 36.594167 22.383520 7.270072
605 1 1 36.402841 22.611005 7.033334
606 1 1 36.454088 22.920473 6.818851
607 1 1 36.377777 22.903205 6.446992
608 1 1 36.315844 22.951005 6.075133
609 1 1 36.266278 23.259034 5.858197
610 1 1 36.504038 23.519493 5.999731
611 1 1 36.707353 23.424080 6.306259
612 1 1 37.007711 23.427746 6.539006
613 1 1 37.369428 23.503027 6.627855
614 1 1 37.732047 23.466643 6.520230
615 1 1 38.105684 23.416181 6.567659
616 1 1 38.431961 23.523030 6.730527
617 1 1 38.672762 23.347585 6.966396
618 1 1 38.505520 23.097803 7.198858
619 1 1 38.180704 22.950077 7.329517
620 1 1 37.851608 23.030410 7.501688
621 1 1 37.502551 23.091666 7.364550
622 1 1 37.442025 22.887912 7.049556
623 1 1 37.585950 22.733935 6.733365
624 1 1 37.564714 22.553755 6.399472
625 1 1 37.537206 22.620111 6.026323
626 1 1 37.829713 22.790888 5.854060
627 1 1 38.133153 22.672961 5.658057
628 1 1 38.156296 22.388319 5.407372
629 1 1 37.941144 22.087421 5.320363
630 1 1 37.936222 21.776037 5.538114
631 1 1 38.165197 21.553136 5.743749
632 1 1 38.238262 21.197129 5.854750
633 1 1 38.397333 21.024349 6.153486
634 1 1 38.717219 20.984320 6.354658
635 1 1 38.660409 21.113519 6.707476
636 1 1 38.893472 21.345142 6.898348
637 1 1 39.228189 21.524839 6.906931
638 1 1 0.188384 21.838386 6.991240
639 1 1 0.349507 22.152014 7.132931
640 1 1 0.425443 22.349003 7.448889
641 1 1 0.404296 22.661106 7.664631
642 1 1 0.611928 22.898188 7.876954
643 1 1 0.602338 23.259044 7.995660
644 1 1 0.813396 23.566066 8.070440
645 1 1 1.177564 23.628563 8.159187
646 1 1 1.539802 23.733923 8.204825
647 1 1 1.700681 24.014757 8.403949
648 1 1 1.850460 24.328113 8.558137
649 1 1 1.821530 24.563444 8.855092
650 1 1 1.574870 24.662446 9.126675
651 1 1 1.255544 24.729714 9.321370
652 1 1 1.141695 25.010808 9.550334
653 1 1 0.919936 25.065188 9.854087
654 1 1 0.853376 25.199785 10.203162
655 1 1 0.868993 25.569200 10.290849
656 1 1 1.194571 25.655428 10.466813
657 1 1 1.424332 25.440065 10.679483
658 1 1 1.571271 25.252958 10.975794
659 1 1 1.810252 25.437488 11.206524
660 1 1 2.089251 25.650351 11.060754
661 1 1 2.391543 25.772396 10.865498
662 1 1 2.666988 25.773686 10.603719
663 1 1 2.871811 26.086509 10.671464
664 1 1 2.888205 26.333632 10.959667
665 1 1 2.816203 26.297262 11.331007
666 1 1 2.639983 26.492340 11.605399
667 1 1 2.791603 26.530356 11.951760
668 1 1 3.160394 26.439487 11.963429
669 1 1 3.452738 26.203826 12.021729
670 1 1 3.745855 26.110093 12.244656
671 1 1 3.710293 25.764096 12.397697
672 1 1 3.685021 25.489074 12.136691
673 1 1 3.941038 25.215589 12.200420
674 1 1 4.185060 25.063277 11.952118
675 1 1 4.277310 24.803097 11.690974
676 1 1 4.568707 24.688062 11.475904
677 1 1 4.830962 24.568100 11.228454
678 1 1 4.947194 24.260214 11.038464
679 1 1 5.300307 24.266820 10.898223
680 1 1 5.439016 23.920139 10.968733
681 1 1 5.584703 23.817650 11.304398
682 1 1 5.626038 23.740019 11.674080
683 1 1 5.482005 23.971476 11.938811
684 1 1 5.417236 24.319748 12.076329
685 1 1 5.191729 24.600628 11.955279
686 1 1 5.032577 24.944338 11.924717
687 1 1 5.151222 25.179436 11.650761
688 1 1 5.111419 25.494950 11.442754
689 1 1 5.205189 25.663254 11.115216
690 1 1 4.967314 25.665259 10.818886
691 1 1 4.851130 25.954318 10.601294
692 1 1 4.791028 26.306733 10.730104
693 1 1 5.012029 26.570935 10.569618
694 1 1 5.341644 26.723847 10.680845
695 1 1 5.545075 27.044800 10.678548
696 1 1 5.616432 27.417680 10.662159
697 1 1 5.619986 27.542290 11.021130
698 1 1 5.465574 27.889059 11.038690
699 1 1 5.428178 28.131879 11.328587
700 1 1 5.315968 28.475959 11.212753
701 1 1 5.295602 28.854421 11.185335
702 1 1 5.540833 29.130805 11.274073
703 1 1 5.699024 29.288697 10.966754
704 1 1 5.925119 29.520909 10.768362
705 1 1 6.022324 29.346704 10.444937
706 1 1 5.964170 29.066549 10.194875
707 1 1 5.846976 28.705618 10.214743
708 1 1 5.588773 28.563803 9.974702
709 1 1 5.420605 28.376642 9.689939
710 1 1 5.603384 28.047296 9.639705
711 1 1 5.821390 27.849380 9.399491
712 1 1 5.849332 27.947939 9.033561
713 1 1 5.672114 27.977955 8.698758
714 1 1 5.774976 28.319543 8.567851
715 1 1 5.683508 28.351078 8.200374
716 1 1 5.821046 28.269625 7.855629
717 1 1 6.030353 27.997833 7.692169
718 1 1 6.391092 28.064007 7.592727
719 1 1 6.550984 27.720188 7.567761
720 1 1 6.896645 27.562536 7.559753
721 1 1 6.876198 27.193842 7.649457
722 1 1 7.169926 27.089483 7.866789
723 1 1 7.394958 27.393853 7.900238
724 1 1 7.517801 27.611667 8.186362
725 1 1 7.486674 27.811350 8.508165
726 1 1 7.175192 27.681948 8.683192
727 1 1 7.056496 27.437743 8.949040
728 1 1 7.016907 27.060508 8.971992
729 1 1 6.864323 26.742287 9.112894
730 1 1 6.751262 26.472653 9.355617
731 1 1 6.498971 26.271004 9.555834
732 1 1 6.556638 25.961720 9.768949
733 1 1 6.297449 25.684139 9.781976
734 1 1 6.342582 25.334111 9.922843
735 1 1 6.140883 25.187907 10.209796
736 1 1 6.079077 25.069921 10.565689
737 1 1 5.802208 25.166129 10.807530
738 1 1 5.931791 25.098322 11.158258
739 1 1 6.253764 25.238109 11.303836
740 1 1 6.487118 25.348086 11.024818
741 1 1 6.826850 25.511149 11.073732
742 1 1 7.040519 25.530155 11.387395
743 1 1 7.377442 25.451014 11.544302
744 1 1 7.473595 25.086386 11.591218
745 1 1 7.360006 24.763050 11.755387
746 1 1 7.656326 24.652050 11.965800
747 1 1 8.018079 24.737912 12.044300
748 1 1 8.292753 24.992090 11.978361
749 1 1 8.202992 25.353595 11.903150
750 1 1 8.048530 25.648400 12.086540
751 1 1 8.304711 25.748881 12.348599
752 1 1 8.117131 25.958549 12.604045
753 1 1 8.139891 26.095766 12.957674
754 1 1 8.195721 26.434316 13.120974
755 1 1 8.390184 26.744201 13.018232
756 1 1 8.230345 27.074436 12.919257
757 1 1 7.877783 27.030451 12.784478
758 1 1 7.560839 27.001753 12.992137
759 1 1 7.521386 27.311460 13.208759
760 1 1 7.355472 27.645950 13.279393
761 1 1 7.058098 27.872950 13.346022
762 1 1 7.098660 28.007166 13.699208
763 1 1 7.325851 28.306650 13.754830
764 1 1 7.256761 28.618463 13.960741
765 1 1 7.238765 28.996769 13.991734
766 1 1 7.390424 29.301648 13.823068
767 1 1 7.204843 29.531942 13.584479
768 1 1 7.369544 29.514108 13.242492
769 1 1 7.641154 29.342819 13.039297
770 1 1 7.916994 29.149561 13.215262
771 1 1 8.142037 28.895061 13.045009
772 1 1 8.514460 28.929528 13.112188
773 1 1 8.893017 28.919748 13.143795
774 1 1 9.184127 28.759007 12.959901
775 1 1 9.290035 28.831325 12.602195
776 1 1 9.231341 29.154146 12.410515
777 1 1 8.943275 29.400011 12.441638
778 1 1 8.755509 29.430056 12.112638
779 1 1 8.510393 29.242294 11.891134
780 1 1 8.265007 28.960772 11.820914
781 1 1 8.417528 28.633863 11.940364
782 1 1 8.571055 28.291823 12.002312
783 1 1 8.615813 27.949509 12.161113
784 1 1 8.646819 27.878634 12.533156
785 1 1 8.760691 28.088814 12.828550
786 1 1 8.947110 27.966272 13.136172
787 1 1 8.957628 28.244655 13.394615
788 1 1 8.811401 28.529130 13.599776
789 1 1 8.582381 28.688875 13.857519
790 1 1 8.547313 29.067241 13.860681
791 1 1 8.376214 29.162402 14.186363
792 1 1 8.084068 29.403972 14.212725
793 1 1 8.218870 29.746049 14.116749
794 1 1 8.336336 30.105725 14.151895
795 1 1 8.116880 30.412550 14.106099
796 1 1 8.147561 30.766392 14.241208
797 1 1 8.181631 31.137612 14.314930
798 1 1 8.508678 31.193013 14.500325
799 1 1 8.682812 31.214420 14.837399
800 1 1 9.041166 31.124156 14.925913
801 1 1 9.335543 31.348677 15.011542
802 1 1 9.374255 31.604069 14.732837
803 1 1 9.128537 31.691567 14.456491
804 1 1 8.777111 31.828593 14.410416
805 1 1 8.428482 31.979665 14.404463
806 1 1 8.069022 31.968516 14.527200
807 1 1 8.048444 32.084467 14.888492
808 1 1 8.367902 32.100138 15.093676
809 1 1 8.668330 31.949876 15.271339
810 1 1 8.924404 32.219336 15.350189
811 1 1 9.163958 32.383666 15.595158
812 1 1 9.534198 32.311125 15.549773
813 1 1 9.658019 32.180969 15.884628
814 1 1 9.844302 31.955024 16.126800
815 1 1 10.082520 31.730039 16.319241