LAMMPS data file for polymer system

27000 atoms
26940 bonds

1 atom types
1 bond types

0.0 39.23724047085697 xlo xhi
0.0 39.23724047085697 ylo yhi
0.0 39.23724047085697 zlo zhi

Masses

1 5.65487

Atoms

1 1 1 0.516599 23.405400 3.864417
2 1 1 0.892496 23.353162 3.845114
3 1 1 1.079715 23.103912 3.627804
4 1 1 1.438936 23.044404 3.519091
5 1 1 1.511510 23.207913 3.183833
6 1 1 1.813969 23.355495 3.007374
7 1 1 1.973276 23.646172 3.193190
8 1 1 1.991839 23.991354 3.351004
9 1 1 2.221254 24.282322 3.266706
10 1 1 2.320001 24.645245 3.320891
11 1 1 2.612763 24.886726 3.301471
12 1 1 2.899456 24.750587 3.510454
13 1 1 2.809060 24.452936 3.728702
14 1 1 2.525348 24.267005 3.899984
15 1 1 2.482249 23.929312 4.068819
16 1 1 2.307700 23.665753 3.857941
17 1 1 2.485249 23.504377 3.563265
18 1 1 2.858316 23.463354 3.503780
19 1 1 3.222206 23.529910 3.590694
20 1 1 3.522398 23.430550 3.379952
21 1 1 3.756738 23.694937 3.240009
22 1 1 3.863681 23.970448 3.001142
23 1 1 3.704783 24.310120 2.939704
24 1 1 3.637196 24.683906 2.950486
25 1 1 3.691785 24.845510 2.610921
26 1 1 3.515230 24.816208 2.275706
27 1 1 3.339134 24.645746 1.985304
28 1 1 3.378960 24.278678 1.895441
29 1 1 3.561851 24.120914 1.602079
30 1 1 3.712440 24.110492 1.253347
31 1 1 4.080691 24.016777 1.250414
32 1 1 4.276506 23.694113 1.206317
33 1 1 4.225312 23.343180 1.342794
34 1 1 4.222339 23.324223 1.722309
35 1 1 4.182371 22.982646 1.883950
36 1 1 4.453835 22.970224 2.149568
37 1 1 4.320591 23.006707 2.503567
38 1 1 4.026177 23.246664 2.515436
39 1 1 3.652873 23.247712 2.444422
40 1 1 3.285921 23.345390 2.458747
41 1 1 2.933431 23.273926 2.581403
42 1 1 2.767470 23.558701 2.770506
43 1 1 2.647976 23.913895 2.833422
44 1 1 2.902875 24.188572 2.770341
45 1 1 3.072458 24.268647 3.100840
46 1 1 3.292312 24.248019 3.410095
47 1 1 3.465747 24.198503 3.744562
48 1 1 3.825863 24.303880 3.684465
49 1 1 4.117210 24.539245 3.748656
50 1 1 4.402820 24.401510 3.539238
51 1 1 4.369804 24.023238 3.554074
52 1 1 4.259503 23.751258 3.795446
53 1 1 4.469401 23.447314 3.706223
54 1 1 4.680487 23.218565 3.924206
55 1 1 4.701981 22.847581 3.844775
56 1 1 4.877508 22.596111 4.069170
57 1 1 5.231322 22.655863 4.194250
58 1 1 5.371257 22.980586 4.055062
59 1 1 5.562039 23.092465 3.746054
60 1 1 5.589272 22.865400 3.442575
61 1 1 5.568976 22.586410 3.185373
62 1 1 5.529030 22.480060 2.822752
63 1 1 5.221039 22.518125 2.603452
64 1 1 5.040758 22.848814 2.653885
65 1 1 5.285256 23.098225 2.803602
66 1 1 5.409053 23.457289 2.791467
67 1 1 5.403901 23.743205 2.541217
68 1 1 5.206340 24.067668 2.531546
69 1 1 4.940034 24.327211 2.453325
70 1 1 5.027490 24.666945 2.307269
71 1 1 5.349716 24.720338 2.113053
72 1 1 5.477531 24.711840 1.755294
73 1 1 5.775420 24.789029 1.532350
74 1 1 6.103360 24.638175 1.651087
75 1 1 6.450782 24.485160 1.634204
76 1 1 6.700435 24.292826 1.421882
77 1 1 7.018319 24.491773 1.360486
78 1 1 7.227789 24.771106 1.210501
79 1 1 7.182858 25.117110 1.059961
80 1 1 7.369810 25.250182 0.757073
81 1 1 7.559944 25.376428 0.453246
82 1 1 7.336767 25.474299 0.161676
83 1 1 7.587694 25.637306 39.164686
84 1 1 7.738503 25.781223 38.846968
85 1 1 8.055332 25.716459 38.647406
86 1 1 8.368037 25.515184 38.725536
87 1 1 8.249782 25.165885 38.817219
88 1 1 8.434090 24.847057 38.910916
89 1 1 8.339237 24.863021 0.041300
90 1 1 8.482306 24.880778 0.392891
91 1 1 8.517752 24.913578 0.769810
92 1 1 8.836697 24.764358 0.912664
93 1 1 9.056310 24.680541 0.614094
94 1 1 9.278556 24.832046 0.345667
95 1 1 9.552619 25.067186 0.227350
96 1 1 9.769882 25.317809 0.041918
97 1 1 9.828393 24.949526 39.206053
98 1 1 9.975133 25.039226 38.867200
99 1 1 10.144397 24.760318 38.672366
100 1 1 10.196882 24.408004 38.804729
101 1 1 10.231635 24.067858 38.638921
102 1 1 10.558790 23.905727 38.533644
103 1 1 10.833025 24.153653 38.445734
104 1 1 10.914415 24.326579 38.774173
105 1 1 10.894175 24.181719 39.124895
106 1 1 11.181187 24.209752 0.135118
107 1 1 11.126452 24.113106 0.498524
108 1 1 10.771841 24.090752 0.633252
109 1 1 10.651997 23.733305 0.585622
110 1 1 10.395689 23.646577 0.852426
111 1 1 10.396959 23.771751 1.211216
112 1 1 10.452997 23.688134 1.577642
113 1 1 10.546262 23.450203 1.858872
114 1 1 10.518569 23.104109 1.704431
115 1 1 10.424125 22.747376 1.795105
116 1 1 10.626903 22.521725 1.566276
117 1 1 10.932432 22.298002 1.597900
118 1 1 11.021605 21.930273 1.562928
119 1 1 10.794186 21.684710 1.382985
120 1 1 10.544462 21.567726 1.121542
121 1 1 10.614499 21.408511 0.783688
122 1 1 10.987456 21.452323 0.725520
123 1 1 11.315547 21.374925 0.900923
124 1 1 11.571787 21.096425 0.935253
125 1 1 11.897673 20.902880 0.962435
126 1 1 11.992081 20.584285 0.778086
127 1 1 12.114159 20.668531 0.428230
128 1 1 12.152726 20.860579 0.102607
129 1 1 11.835862 20.986858 39.172363
130 1 1 11.838595 21.361942 39.233224
131 1 1 11.931461 21.636188 0.242084
132 1 1 11.818645 21.550549 0.594701
133 1 1 11.994237 21.582305 0.930199
134 1 1 11.825376 21.538470 1.267785
135 1 1 11.824699 21.519441 1.647308
136 1 1 12.031916 21.726018 1.889769
137 1 1 11.874084 21.819738 2.222494
138 1 1 11.516376 21.877005 2.337237
139 1 1 11.246250 21.619554 2.265471
140 1 1 10.991509 21.353434 2.358678
141 1 1 10.991740 20.974742 2.327175
142 1 1 11.202251 20.801234 2.062638
143 1 1 11.556287 20.664099 2.046738
144 1 1 11.824352 20.914557 1.947685
145 1 1 12.156714 20.798289 1.804795
146 1 1 12.420489 21.049981 1.911911
147 1 1 12.503069 21.389535 2.061188
148 1 1 12.420615 21.539983 2.400255
149 1 1 12.600755 21.874423 2.410206
150 1 1 12.833176 22.003967 2.681498
151 1 1 13.146225 22.174798 2.812711
152 1 1 13.478229 22.300661 2.677315
153 1 1 13.734647 22.021803 2.647513
154 1 1 13.626790 21.778735 2.376064
155 1 1 13.402880 21.512496 2.223156
156 1 1 13.130422 21.255038 2.160847
157 1 1 12.974050 20.909177 2.142737
158 1 1 13.022020 20.557476 2.278402
159 1 1 13.157572 20.528111 2.632186
160 1 1 12.956582 20.424096 2.937446
161 1 1 12.856185 20.454334 3.302694
162 1 1 12.736189 20.641339 3.610964
163 1 1 12.662716 21.014126 3.616587
164 1 1 12.951695 21.260382 3.600804
165 1 1 12.936957 21.523716 3.874370
166 1 1 12.882294 21.741056 4.181250
167 1 1 12.751782 22.046104 4.366486
168 1 1 12.824517 22.408160 4.456066
169 1 1 12.537805 22.543460 4.665566
170 1 1 12.217766 22.551460 4.870287
171 1 1 12.000781 22.551315 5.182245
172 1 1 11.626641 22.514668 5.237708
173 1 1 11.435616 22.187227 5.264000
174 1 1 11.143806 21.944229 5.249886
175 1 1 11.089535 21.782133 5.589267
176 1 1 10.961965 21.424540 5.605188
177 1 1 10.872173 21.061761 5.673950
178 1 1 10.972205 20.856445 5.977659
179 1 1 10.890868 20.498796 6.077013
180 1 1 10.602360 20.281805 5.958362
181 1 1 10.381245 20.187718 5.663989
182 1 1 10.003362 20.193608 5.624364
183 1 1 9.827372 19.914231 5.436280
184 1 1 9.783570 19.580904 5.259150
185 1 1 9.438591 19.467444 5.147274
186 1 1 9.207081 19.368433 4.862669
187 1 1 8.841291 19.387164 4.761442
188 1 1 8.712263 19.570075 4.454367
189 1 1 8.657802 19.945008 4.483677
190 1 1 8.532178 20.298488 4.423091
191 1 1 8.260387 20.329524 4.159336
192 1 1 8.245597 20.207426 3.799790
193 1 1 8.336827 19.851683 3.702199
194 1 1 8.445862 19.529837 3.872277
195 1 1 8.333595 19.233482 3.662587
196 1 1 8.161307 18.941401 3.834067
197 1 1 7.865743 18.817512 4.038257
198 1 1 7.713780 18.874967 4.381778
199 1 1 7.919817 18.893191 4.700552
200 1 1 7.772123 19.042051 5.017454
201 1 1 7.408462 19.141203 4.969290
202 1 1 7.061119 19.278798 4.899859
203 1 1 6.953836 19.454346 4.580370
204 1 1 6.654217 19.636899 4.434416
205 1 1 6.542634 19.902797 4.681899
206 1 1 6.381843 20.212966 4.831371
207 1 1 6.251628 20.373983 5.149989
208 1 1 5.875793 20.318440 5.142065
209 1 1 5.736755 20.240869 4.797027
210 1 1 5.779102 20.508825 4.530932
211 1 1 5.599735 20.840295 4.482402
212 1 1 5.278611 21.027204 4.562054
213 1 1 5.156638 21.379341 4.487739
214 1 1 4.784356 21.369630 4.563317
215 1 1 4.560989 21.399712 4.869262
216 1 1 4.241064 21.207135 4.798819
217 1 1 4.288980 20.949080 4.524025
218 1 1 4.094791 20.701700 4.310733
219 1 1 3.844236 20.417805 4.278694
220 1 1 3.683529 20.086969 4.183192
221 1 1 3.603288 20.088338 3.811763
222 1 1 3.241392 20.199419 3.778724
223 1 1 2.985172 20.003980 3.577342
224 1 1 2.888389 19.636513 3.576246
225 1 1 3.073684 19.308441 3.625586
226 1 1 3.282081 19.345889 3.941130
227 1 1 3.650195 19.253344 3.923033
228 1 1 4.015739 19.152639 3.897815
229 1 1 4.258543 19.116007 4.187823
230 1 1 4.578035 19.064591 4.387024
231 1 1 4.712552 18.983925 4.733142
232 1 1 4.974828 18.709094 4.742056
233 1 1 5.322299 18.651815 4.599286
234 1 1 5.489891 18.341663 4.741127
235 1 1 5.398162 18.269565 5.102773
236 1 1 5.223668 18.489756 5.358640
237 1 1 4.909744 18.607895 5.537231
238 1 1 5.025543 18.882278 5.773249
239 1 1 4.981345 19.160815 6.027933
240 1 1 4.727499 19.432148 6.107560
241 1 1 4.495851 19.731090 6.144619
242 1 1 4.219368 19.693620 5.886640
243 1 1 4.058490 20.033603 5.832510
244 1 1 3.888561 20.342437 5.690572
245 1 1 3.948807 20.661560 5.887881
246 1 1 4.053596 20.895351 6.168525
247 1 1 4.181818 21.048608 6.491745
248 1 1 4.489106 21.219986 6.635286
249 1 1 4.848755 21.321404 6.704328
250 1 1 5.039313 21.001494 6.780125
251 1 1 5.031476 20.903202 7.147109
252 1 1 5.190182 20.822650 7.482853
253 1 1 5.259941 20.941739 7.836902
254 1 1 5.255679 20.796247 8.187921
255 1 1 5.291257 20.727904 8.560027
256 1 1 5.163109 20.628483 8.903675
257 1 1 4.847269 20.822492 8.987375
258 1 1 4.939332 21.178396 9.083589
259 1 1 4.798601 21.475163 9.274701
260 1 1 4.703343 21.654393 9.595953
261 1 1 4.952379 21.926317 9.687812
262 1 1 5.135203 22.136983 9.429752
263 1 1 4.877515 22.349543 9.248603
264 1 1 4.513665 22.267795 9.175591
265 1 1 4.208980 22.079566 9.302622
266 1 1 3.838263 22.142837 9.357082
267 1 1 3.484125 22.100917 9.488340
268 1 1 3.172149 22.316033 9.460120
269 1 1 2.807931 22.424402 9.461336
270 1 1 2.604809 22.109119 9.400198
271 1 1 2.236846 22.072534 9.487747
272 1 1 2.000981 21.809992 9.346895
273 1 1 1.782533 21.711069 9.052116
274 1 1 1.468469 21.875905 8.915759
275 1 1 1.138517 21.767872 9.070229
276 1 1 1.086519 21.589374 9.401642
277 1 1 0.883234 21.535018 9.718061
278 1 1 0.740463 21.509179 10.069271
279 1 1 0.860693 21.696245 10.377413
280 1 1 0.801403 22.051981 10.497148
281 1 1 0.624726 22.072263 10.832966
282 1 1 0.347404 22.046564 11.091485
283 1 1 0.152153 21.934091 11.397470
284 1 1 39.170061 22.176965 11.204324
285 1 1 39.143463 21.941533 10.907231
286 1 1 39.180949 21.585619 11.034982
287 1 1 0.062223 21.229581 11.094906
288 1 1 39.101910 21.064208 11.374234
289 1 1 38.943548 20.993925 11.712438
290 1 1 0.034773 21.185002 11.712172
291 1 1 0.300984 21.446747 11.783032
292 1 1 0.475244 21.602600 12.082604
293 1 1 0.340339 21.455442 12.405938
294 1 1 0.114400 21.716412 12.564831
295 1 1 39.112574 21.811083 12.285037
296 1 1 39.215101 21.503497 12.483227
297 1 1 39.053496 21.194967 12.635189
298 1 1 39.111381 21.163821 13.009460
299 1 1 0.247907 21.097292 12.992963
300 1 1 0.252614 20.726409 13.075570
301 1 1 0.063676 20.400582 13.125965
302 1 1 38.942756 20.284519 13.177441
303 1 1 38.749486 20.014435 12.992773
304 1 1 38.697272 19.643183 13.054786
305 1 1 38.481832 19.382523 12.881460
306 1 1 38.422933 19.062096 12.685864
307 1 1 38.458943 19.014318 12.310603
308 1 1 38.536377 19.118478 11.953455
309 1 1 38.824216 19.365386 11.929269
310 1 1 38.950520 19.683587 11.764359
311 1 1 39.163086 19.890823 12.001570
312 1 1 0.296435 19.931330 11.927934
313 1 1 0.622568 19.748539 11.995943
314 1 1 0.720438 19.485757 11.739492
315 1 1 1.047953 19.388045 11.573401
316 1 1 1.082529 19.099608 11.328435
317 1 1 1.104624 18.727220 11.256053
318 1 1 1.092558 18.428064 11.490062
319 1 1 1.187649 18.111528 11.677578
320 1 1 1.121918 17.961069 12.020276
321 1 1 0.953991 18.219119 12.243010
322 1 1 1.157922 18.371395 12.525187
323 1 1 1.144502 18.750320 12.550408
324 1 1 1.173382 19.059197 12.769863
325 1 1 1.067571 19.273801 13.065073
326 1 1 0.845743 19.482412 13.292392
327 1 1 0.501119 19.338511 13.362581
328 1 1 0.224239 19.085125 13.422024
329 1 1 39.121803 19.220952 13.524838
330 1 1 39.192943 19.403123 13.850649
331 1 1 0.225353 19.429781 14.117066
332 1 1 0.235195 19.625209 14.442813
333 1 1 0.058680 19.425830 14.713904
334 1 1 39.058054 19.235101 14.940712
335 1 1 39.175777 19.582635 15.039511
336 1 1 38.967587 19.887772 15.128661
337 1 1 0.088080 19.997347 15.195142
338 1 1 0.096217 20.321309 15.393592
339 1 1 0.390510 20.561373 15.380920
340 1 1 0.703152 20.417077 15.220192
341 1 1 0.856400 20.573046 14.909404
342 1 1 1.029103 20.895108 15.013565
343 1 1 0.977869 21.243218 15.157072
344 1 1 1.197098 21.535680 15.261016
345 1 1 1.485200 21.723039 15.098861
346 1 1 1.593357 21.967204 14.828518
347 1 1 1.908547 22.047249 14.631927
348 1 1 2.243296 21.868508 14.651798
349 1 1 2.295034 21.492231 14.663558
350 1 1 2.434170 21.195869 14.470656
351 1 1 2.748338 21.286640 14.277112
352 1 1 3.078925 21.367095 14.107882
353 1 1 3.451986 21.438551 14.118828
354 1 1 3.748525 21.658519 14.028947
355 1 1 3.906378 21.739718 13.692957
356 1 1 4.232872 21.680750 13.507689
357 1 1 4.356516 21.321429 13.508563
358 1 1 4.289504 20.965480 13.393630
359 1 1 4.123555 20.956925 13.051887
360 1 1 3.963268 20.693866 12.829384
361 1 1 3.915788 20.617879 12.460098
362 1 1 3.722723 20.416128 12.202372
363 1 1 3.536929 20.155308 12.406953
364 1 1 3.522618 19.793035 12.520768
365 1 1 3.170122 19.696585 12.624903
366 1 1 2.891156 19.689466 12.882832
367 1 1 2.862225 19.556463 13.237618
368 1 1 2.528454 19.396654 13.323974
369 1 1 2.279281 19.590262 13.535703
370 1 1 2.354777 19.960096 13.491848
371 1 1 2.445804 20.280489 13.308921
372 1 1 2.483888 20.191194 12.941530
373 1 1 2.221284 19.925268 12.872812
374 1 1 1.900181 19.872875 13.069150
375 1 1 1.580234 19.686904 13.155456
376 1 1 1.418559 19.863821 13.450348
377 1 1 1.152229 20.112897 13.557257
378 1 1 0.843931 20.064466 13.774068
379 1 1 0.754505 20.370793 13.980384
380 1 1 0.447389 20.591099 14.019693
381 1 1 0.120003 20.398664 14.033389
382 1 1 0.016911 20.041309 13.955483
383 1 1 38.962511 20.246942 14.086100
384 1 1 39.077086 20.456105 13.790257
385 1 1 38.897328 20.769743 13.673133
386 1 1 38.552152 20.918722 13.617826
387 1 1 38.300223 20.665154 13.746804
388 1 1 38.417084 20.323155 13.629416
389 1 1 38.377461 19.948529 13.679271
390 1 1 38.217554 19.833786 14.004331
391 1 1 38.089016 19.924409 14.350258
392 1 1 38.068980 19.999553 14.722215
393 1 1 38.071195 20.067198 15.096139
394 1 1 37.780248 20.300087 15.170386
395 1 1 37.881328 20.659824 15.239470
396 1 1 38.178432 20.890358 15.294090
397 1 1 38.393466 21.200292 15.339928
398 1 1 38.500814 21.563738 15.311940
399 1 1 38.878140 21.601047 15.337108
400 1 1 38.975723 21.712775 15.686957
401 1 1 0.111515 21.756210 15.744921
402 1 1 0.291668 21.421923 15.758962
403 1 1 0.448830 21.401978 16.104364
404 1 1 0.816811 21.325015 16.048988
405 1 1 1.021313 21.532689 16.292813
406 1 1 1.371725 21.473114 16.427209
407 1 1 1.530515 21.571218 16.758210
408 1 1 1.744386 21.478807 17.058409
409 1 1 2.100440 21.350051 17.026046
410 1 1 2.302235 21.620502 16.851303
411 1 1 2.173934 21.871565 16.596537
412 1 1 2.114398 21.761771 16.237648
413 1 1 1.907180 21.851331 15.931970
414 1 1 1.571895 21.875271 15.754738
415 1 1 1.396696 22.172339 15.914287
416 1 1 1.668413 22.433112 15.964955
417 1 1 1.935460 22.535563 15.714776
418 1 1 2.285529 22.668954 15.651070
419 1 1 2.578349 22.854068 15.807240
420 1 1 2.947522 22.796548 15.737939
421 1 1 3.107689 22.459725 15.810717
422 1 1 3.430500 22.422989 16.007804
423 1 1 3.638806 22.628443 16.250286
424 1 1 3.753651 22.990433 16.263471
425 1 1 4.041713 23.119074 16.475300
426 1 1 3.951739 23.178278 16.839717
427 1 1 4.062428 23.219890 17.200849
428 1 1 4.213969 23.052248 17.506351
429 1 1 4.128365 22.835521 17.806519
430 1 1 3.849366 22.645299 17.980804
431 1 1 3.577760 22.479425 17.773160
432 1 1 3.253863 22.322918 17.895618
433 1 1 2.897336 22.321953 18.027101
434 1 1 2.827813 22.634818 18.231263
435 1 1 2.592605 22.847020 18.021388
436 1 1 2.617782 23.213142 18.119981
437 1 1 2.728649 23.265760 18.479620
438 1 1 2.703750 23.217501 18.855720
439 1 1 2.440991 23.462488 18.979569
440 1 1 2.141257 23.542036 19.199186
441 1 1 2.033714 23.225488 19.379828
442 1 1 2.213777 23.074481 19.678449
443 1 1 2.149723 23.039613 20.051385
444 1 1 2.484119 22.964967 20.215725
445 1 1 2.693436 23.043035 20.523120
446 1 1 3.055461 23.120570 20.608713
447 1 1 3.206236 23.066763 20.953345
448 1 1 2.916927 23.034150 21.197551
449 1 1 2.711074 23.352356 21.225292
450 1 1 2.465224 23.488207 20.969359
451 1 1 27.170164 0.153547 0.924249
452 1 1 27.075873 0.432124 1.164882
453 1 1 27.051949 0.301945 1.521086
454 1 1 26.893615 0.431909 1.841148
455 1 1 26.948647 0.742564 2.052962
456 1 1 27.150613 1.062019 2.013491
457 1 1 27.511410 1.152149 1.935375
458 1 1 27.589419 1.244344 1.575077
459 1 1 27.574893 1.206841 1.197211
460 1 1 27.235901 1.309727 1.059738
461 1 1 26.991193 1.582056 1.161497
462 1 1 26.687140 1.739600 1.326216
463 1 1 26.394930 1.947970 1.451097
464 1 1 26.179847 2.068411 1.161904
465 1 1 26.151749 1.880446 0.832845
466 1 1 25.913434 1.715913 0.586806
467 1 1 25.664783 1.774228 0.305431
468 1 1 25.765343 1.964728 39.229626
469 1 1 25.807891 2.198506 38.933083
470 1 1 25.909715 2.559073 38.996510
471 1 1 26.122331 2.639940 0.063662
472 1 1 25.945786 2.883934 0.295392
473 1 1 25.992565 3.250127 0.385471
474 1 1 25.874191 3.492226 0.117561
475 1 1 25.980158 3.803080 39.163644
476 1 1 25.681106 3.739164 38.938072
477 1 1 25.451202 4.041514 38.949378
478 1 1 25.071890 4.032629 38.970451
479 1 1 24.819927 4.185358 38.730474
480 1 1 24.876419 4.176375 38.354804
481 1 1 25.101012 3.961728 38.135978
482 1 1 25.182700 4.111889 37.796598
483 1 1 24.889223 4.333628 37.701187
484 1 1 24.714593 4.582902 37.473664
485 1 1 24.466600 4.813993 37.645410
486 1 1 24.243633 4.968417 37.911567
487 1 1 24.264223 4.756580 38.226370
488 1 1 24.293041 4.476540 38.481609
489 1 1 24.013468 4.229919 38.555212
490 1 1 23.819220 3.903377 38.549082
491 1 1 23.677016 3.742148 38.862425
492 1 1 23.363543 3.821865 39.061874
493 1 1 23.567287 3.779434 0.142577
494 1 1 23.413888 3.901954 0.467935
495 1 1 23.500546 4.252705 0.585681
496 1 1 23.861645 4.367870 0.558396
497 1 1 23.851704 4.739586 0.636679
498 1 1 23.935108 5.067993 0.808703
499 1 1 24.064681 5.425092 0.818284
500 1 1 23.900738 5.719090 0.994601
501 1 1 23.526313 5.656014 0.979513
502 1 1 23.198628 5.497217 1.088168
503 1 1 23.258309 5.372977 1.442290
504 1 1 23.310155 5.497460 1.797559
505 1 1 23.371434 5.378993 2.153383
506 1 1 23.232576 5.242714 2.479797
507 1 1 23.062326 5.513679 2.684720
508 1 1 22.927203 5.565063 3.036147
509 1 1 23.221651 5.572612 3.276237
510 1 1 23.575693 5.559218 3.413624
511 1 1 23.663895 5.858852 3.630049
512 1 1 23.608011 5.779506 3.997447
513 1 1 23.931866 5.754155 4.194614
514 1 1 24.294973 5.842833 4.263099
515 1 1 24.374486 6.024920 4.587015
516 1 1 24.164691 5.876935 4.867170
517 1 1 23.957648 5.559915 4.835055
518 1 1 23.622006 5.398745 4.911007
519 1 1 23.301846 5.587253 4.831247
520 1 1 23.011916 5.409724 4.661471
521 1 1 22.945419 5.175770 4.369506
522 1 1 22.707930 4.917919 4.222836
523 1 1 22.567005 4.845719 3.877398
524 1 1 22.318648 5.049708 3.674650
525 1 1 22.205629 4.988947 3.316970
526 1 1 22.414784 4.712268 3.161719
527 1 1 22.455348 4.334983 3.141466
528 1 1 22.613551 3.996196 3.073678
529 1 1 22.357536 3.717279 3.106268
530 1 1 22.142054 3.447109 2.948232
531 1 1 22.029842 3.096215 3.041410
532 1 1 21.774018 2.907733 3.249804
533 1 1 21.786183 2.947309 3.627541
534 1 1 21.427330 2.929815 3.751307
535 1 1 21.315811 2.744498 4.063751
536 1 1 21.548931 2.782691 4.361402
537 1 1 21.790793 2.545918 4.534149
538 1 1 21.897387 2.424663 4.878148
539 1 1 22.079833 2.555361 5.184793
540 1 1 21.981701 2.470157 5.541880
541 1 1 22.057915 2.710132 5.826490
542 1 1 21.795129 2.656610 6.095710
543 1 1 21.448071 2.774166 5.995057
544 1 1 21.215409 3.071612 6.037410
545 1 1 21.025170 3.095628 5.709336
546 1 1 21.091367 3.170715 5.342758
547 1 1 20.995579 3.518223 5.222497
548 1 1 20.752917 3.792872 5.122082
549 1 1 20.825756 4.127548 5.286662
550 1 1 20.548022 4.257313 5.511217
551 1 1 20.361386 3.959624 5.655950
552 1 1 20.333077 3.869907 6.024121
553 1 1 20.144584 3.569505 6.160609
554 1 1 20.278516 3.301483 6.394331
555 1 1 20.125726 3.185180 6.722247
556 1 1 19.883281 3.396708 6.924425
557 1 1 19.726235 3.628308 7.181521
558 1 1 19.351499 3.686898 7.158282
559 1 1 19.224199 3.784258 7.502834
560 1 1 18.846209 3.796514 7.539890
561 1 1 18.647144 3.506980 7.684606
562 1 1 18.299452 3.500034 7.837779
563 1 1 17.965297 3.333001 7.768205
564 1 1 17.735555 3.030410 7.760664
565 1 1 17.382075 2.984036 7.629127
566 1 1 17.092878 2.753731 7.717015
567 1 1 16.963464 2.628732 7.382310
568 1 1 16.589909 2.564109 7.356215
569 1 1 16.358201 2.824050 7.204089
570 1 1 16.076024 2.834446 6.949790
571 1 1 15.901295 3.129727 6.786453
572 1 1 15.862084 3.359076 6.486018
573 1 1 15.617247 3.319013 6.198182
574 1 1 15.376900 3.605275 6.129715
575 1 1 15.080715 3.836679 6.185631
576 1 1 14.754179 3.945437 6.346708
577 1 1 14.525812 4.249003 6.336891
578 1 1 14.709139 4.581851 6.335076
579 1 1 14.888383 4.912448 6.280512
580 1 1 15.119300 5.204677 6.205148
581 1 1 15.480566 5.322321 6.198322
582 1 1 15.806007 5.180039 6.333393
583 1 1 16.114204 4.999764 6.203333
584 1 1 16.422076 4.953382 6.421194
585 1 1 16.579599 4.840118 6.747933
586 1 1 16.799662 4.683511 7.015227
587 1 1 16.924027 4.918136 7.287044
588 1 1 17.038974 5.236479 7.459801
589 1 1 16.872931 5.563870 7.361592
590 1 1 16.994889 5.923504 7.347839
591 1 1 17.053973 6.042476 6.991813
592 1 1 17.382512 5.888503 6.878878
593 1 1 17.514138 5.671003 7.161311
594 1 1 17.852168 5.503585 7.115410
595 1 1 18.121975 5.295341 7.283452
596 1 1 18.009296 4.932615 7.271902
597 1 1 17.880465 4.701929 7.545007
598 1 1 17.924274 4.360703 7.706393
599 1 1 17.748040 4.227440 8.015557
600 1 1 17.419510 4.086259 7.886966
601 1 1 17.300193 3.838526 7.624683
602 1 1 16.962074 3.897624 7.461639
603 1 1 16.906305 3.637508 7.190292
604 1 1 16.779249 3.317860 7.351791
605 1 1 16.478489 3.338085 7.583166
606 1 1 16.335409 3.128348 7.865900
607 1 1 16.588957 2.998581 8.117444
608 1 1 16.744916 2.826472 8.418201
609 1 1 17.093081 2.682857 8.367639
610 1 1 17.179679 2.493750 8.685663
611 1 1 17.037983 2.644870 9.004230
612 1 1 16.754094 2.568226 9.244923
613 1 1 16.500527 2.826609 9.360430
614 1 1 16.342786 3.161871 9.276065
615 1 1 16.473921 3.496324 9.152191
616 1 1 16.210675 3.768848 9.123345
617 1 1 16.135455 3.979661 9.430427
618 1 1 15.796600 3.984009 9.602354
619 1 1 15.688759 3.820005 9.927736
620 1 1 15.810543 3.460251 9.939827
621 1 1 15.815320 3.105584 9.803488
622 1 1 15.976268 2.888559 10.070689
623 1 1 16.164830 2.923558 10.398743
624 1 1 16.499512 2.746188 10.429198
625 1 1 16.595094 2.425800 10.248600
626 1 1 16.715146 2.177416 9.987270
627 1 1 16.521582 1.853389 9.943232
628 1 1 16.257361 1.851678 9.670130
629 1 1 16.140325 1.551830 9.468156
630 1 1 15.800886 1.428843 9.349600
631 1 1 15.822209 1.413023 8.970528
632 1 1 15.780843 1.168834 8.682326
633 1 1 15.720092 1.127899 8.309454
634 1 1 15.457602 1.141558 8.035023
635 1 1 15.233549 0.912872 7.830322
636 1 1 15.262254 0.546887 7.928461
637 1 1 15.240770 0.221898 7.732704
638 1 1 15.054867 39.220843 7.502366
639 1 1 15.074294 38.966720 7.784224
640 1 1 14.867792 38.895555 8.095179
641 1 1 14.495132 38.951539 8.144070
642 1 1 14.148879 38.944172 7.987692
643 1 1 14.038607 39.012851 7.630588
644 1 1 13.872149 0.105290 7.720047
645 1 1 13.888924 0.408211 7.948865
646 1 1 13.558726 0.579569 8.026358
647 1 1 13.276399 0.792198 7.886786
648 1 1 12.960089 0.621535 7.763409
649 1 1 12.663811 0.409183 7.656048
650 1 1 12.334218 0.391809 7.467723
651 1 1 11.962243 0.365643 7.540868
652 1 1 11.793466 0.058993 7.688788
653 1 1 11.825210 39.077982 7.998237
654 1 1 11.676295 38.824725 7.757228
655 1 1 11.481716 38.501841 7.805030
656 1 1 11.341180 38.423661 8.149323
657 1 1 11.098386 38.402456 8.440874
658 1 1 11.053558 38.455293 8.814503
659 1 1 10.874748 38.683918 9.059773
660 1 1 10.974142 39.050638 9.065845
661 1 1 10.885056 0.176683 9.132834
662 1 1 11.213820 0.043592 8.996449
663 1 1 11.525903 39.128043 8.842632
664 1 1 11.798724 0.154158 8.817891
665 1 1 11.963356 0.448195 8.993500
666 1 1 12.281315 0.600064 8.851239
667 1 1 12.340645 0.820276 8.547288
668 1 1 12.115608 1.018756 8.314127
669 1 1 12.080690 1.091474 7.942787
670 1 1 12.389991 1.212504 7.758166
671 1 1 12.622221 1.500225 7.670502
672 1 1 12.495652 1.842017 7.562991
673 1 1 12.751028 2.069522 7.397386
674 1 1 13.087950 2.012107 7.231292
675 1 1 13.411880 2.005208 7.429840
676 1 1 13.490037 1.768358 7.716534
677 1 1 13.728553 1.479059 7.778316
678 1 1 13.871973 1.311071 7.469106
679 1 1 13.752063 1.036292 7.235616
680 1 1 13.623920 1.203337 6.919269
681 1 1 13.620696 1.580243 6.870988
682 1 1 13.531473 1.845043 6.613460
683 1 1 13.610087 1.835638 6.241800
684 1 1 13.649990 2.028863 5.917035
685 1 1 13.606414 2.406203 5.906301
686 1 1 13.520547 2.625367 5.607981
687 1 1 13.188386 2.756715 5.478302
688 1 1 12.865876 2.816997 5.286591
689 1 1 12.497485 2.745205 5.346041
690 1 1 12.209327 2.599354 5.145810
691 1 1 12.118718 2.351496 4.872394
692 1 1 11.809905 2.191512 4.719292
693 1 1 11.445450 2.286101 4.770528
694 1 1 11.132248 2.074228 4.808137
695 1 1 11.054435 1.747801 4.629837
696 1 1 11.178003 1.797948 4.274005
697 1 1 10.973433 2.088444 4.139234
698 1 1 10.650535 2.089055 3.938893
699 1 1 10.619135 2.081834 3.560262
700 1 1 10.798735 2.206469 3.249440
701 1 1 11.130456 2.374337 3.328060
702 1 1 11.419848 2.286114 3.557993
703 1 1 11.570069 2.344599 3.902105
704 1 1 11.892768 2.506851 4.020171
705 1 1 12.045943 2.687255 4.317479
706 1 1 12.007721 2.916189 4.618358
707 1 1 12.222731 3.153732 4.822671
708 1 1 11.984350 3.424933 4.941097
709 1 1 11.620238 3.469432 4.841886
710 1 1 11.320493 3.693193 4.774923
711 1 1 11.147976 3.661136 4.437862
712 1 1 11.402059 3.665623 4.155334
713 1 1 11.765455 3.613146 4.253259
714 1 1 12.008418 3.362976 4.102316
715 1 1 12.033190 3.194668 3.762524
716 1 1 12.354285 3.117998 3.574322
717 1 1 12.642657 3.336065 3.457324
718 1 1 12.500660 3.551861 3.178632
719 1 1 12.518914 3.624926 2.806170
720 1 1 12.814748 3.615034 2.567876
721 1 1 12.955395 3.262141 2.577079
722 1 1 13.080170 2.925124 2.700574
723 1 1 12.884239 2.599612 2.707834
724 1 1 12.645571 2.471912 2.441131
725 1 1 12.765561 2.580630 2.097354
726 1 1 12.687901 2.910322 1.925099
727 1 1 12.983391 3.142598 1.981078
728 1 1 13.079563 3.430695 1.752712
729 1 1 13.056213 3.807083 1.705949
730 1 1 13.212656 4.001806 1.419577
731 1 1 13.029480 4.297539 1.266642
732 1 1 13.103876 4.604908 1.055954
733 1 1 13.000579 4.968807 1.019794
734 1 1 12.915414 5.080708 1.372817
735 1 1 12.753761 4.890130 1.659083
736 1 1 12.598201 4.848591 2.003286
737 1 1 12.598948 5.044745 2.328744
738 1 1 12.730734 5.330250 2.542097
739 1 1 13.009868 5.473255 2.756652
740 1 1 12.891400 5.654832 3.068733
741 1 1 12.642171 5.860467 3.268731
742 1 1 12.761893 6.086501 3.549757
743 1 1 12.773524 6.453418 3.451591
744 1 1 12.497640 6.706624 3.386977
745 1 1 12.117883 6.705545 3.373441
746 1 1 11.771952 6.556514 3.323223
747 1 1 11.395232 6.508235 3.335513
748 1 1 11.223062 6.827584 3.448532
749 1 1 11.193007 6.934815 3.811848
750 1 1 11.038354 7.280381 3.844498
751 1 1 10.792329 7.415876 4.100453
752 1 1 10.585614 7.728920 4.161056
753 1 1 10.315133 7.934951 4.330735
754 1 1 9.977962 7.762802 4.363605
755 1 1 9.759234 7.476152 4.483563
756 1 1 9.582288 7.324823 4.783879
757 1 1 9.516242 7.517623 5.104606
758 1 1 9.604793 7.765474 5.378702
759 1 1 9.452690 7.946988 5.675884
760 1 1 9.343953 8.301977 5.594892
761 1 1 9.484786 8.649701 5.655339
762 1 1 9.208252 8.895433 5.742199
763 1 1 8.919695 9.033305 5.536953
764 1 1 8.636676 8.830565 5.384648
765 1 1 8.465353 8.551174 5.192323
766 1 1 8.565295 8.608903 4.830275
767 1 1 8.667429 8.766026 4.499698
768 1 1 8.508009 9.083804 4.365526
769 1 1 8.212453 9.310516 4.440682
770 1 1 8.172739 9.678481 4.354517
771 1 1 7.968547 9.882129 4.107064
772 1 1 7.753725 9.998098 3.815855
773 1 1 7.461904 9.770264 3.730227
774 1 1 7.377835 9.512562 3.463915
775 1 1 7.217685 9.168722 3.440974
776 1 1 7.030398 8.846213 3.513856
777 1 1 6.717087 8.705748 3.351052
778 1 1 6.456029 8.688946 3.075432
779 1 1 6.165507 8.922165 3.000559
780 1 1 5.907781 9.200991 3.015833
781 1 1 5.622857 9.348100 3.219738
782 1 1 5.657041 9.507336 3.563068
783 1 1 5.730811 9.869034 3.653246
784 1 1 5.481968 9.996628 3.910533
785 1 1 5.406534 9.747818 4.187667
786 1 1 5.601649 9.817062 4.506314
787 1 1 5.805789 10.074059 4.697831
788 1 1 6.175730 10.128326 4.630019
789 1 1 6.502996 10.137167 4.437097
790 1 1 6.854170 9.992029 4.440493
791 1 1 7.209002 9.885657 4.525223
792 1 1 7.327638 9.582752 4.328820
793 1 1 7.282753 9.206933 4.362666
794 1 1 7.226859 8.837387 4.431308
795 1 1 7.266143 8.604358 4.728888
796 1 1 7.501476 8.497010 5.007267
797 1 1 7.660893 8.434182 5.346441
798 1 1 7.916492 8.323687 5.605014
799 1 1 8.189611 8.130872 5.785646
800 1 1 8.493609 8.315182 5.919866
801 1 1 8.505149 8.593507 6.178328
802 1 1 8.526612 8.872894 6.435003
803 1 1 8.582489 8.767852 6.795896
804 1 1 8.275044 8.647709 6.984160
805 1 1 7.913496 8.594467 6.880005
806 1 1 7.600941 8.403383 6.779030
807 1 1 7.495486 8.292962 6.431055
808 1 1 7.194344 8.083046 6.332827
809 1 1 7.235979 7.755139 6.145360
810 1 1 7.281568 7.422998 6.324256
811 1 1 7.573546 7.253001 6.498182
812 1 1 7.744877 7.019842 6.744520
813 1 1 7.868662 6.668661 6.668694
814 1 1 7.936050 6.294691 6.671023
815 1 1 8.246971 6.084424 6.730320
816 1 1 8.570405 5.906471 6.640191
817 1 1 8.891100 5.759599 6.498829
818 1 1 9.156318 6.027084 6.448718
819 1 1 9.014079 6.376856 6.491467
820 1 1 8.927766 6.591496 6.190004
821 1 1 8.756786 6.930680 6.200966
822 1 1 8.802727 7.092272 5.860118