LAMMPS data file for polymer system

27000 atoms
26940 bonds

1 atom types
1 bond types

0.0 39.23724047085697 xlo xhi
0.0 39.23724047085697 ylo yhi
0.0 39.23724047085697 zlo zhi

Masses

1 5.65487

Atoms

1 1 1 32.696240 37.407494 10.369214
2 1 1 32.418903 37.269397 10.589244
3 1 1 32.095506 37.313751 10.394699
4 1 1 31.896713 37.351648 10.073070
5 1 1 31.920114 37.581515 9.771386
6 1 1 32.187991 37.546389 9.504163
7 1 1 32.506293 37.429003 9.675348
8 1 1 32.858576 37.298931 9.617228
9 1 1 33.224695 37.392408 9.576991
10 1 1 33.268692 37.736287 9.421391
11 1 1 33.368850 37.814789 9.063332
12 1 1 33.511256 38.121828 8.890568
13 1 1 33.468013 38.461498 8.725783
14 1 1 33.335603 38.804968 8.820100
15 1 1 33.336062 38.996145 9.148507
16 1 1 33.279447 0.017351 8.875743
17 1 1 33.495483 0.292570 8.727477
18 1 1 33.767957 0.434640 8.951026
19 1 1 33.665574 0.349609 9.306958
20 1 1 33.809823 0.132970 9.583832
21 1 1 34.140296 0.236707 9.740121
22 1 1 34.228982 39.226677 9.465545
23 1 1 33.873293 39.112329 9.396192
24 1 1 33.871145 38.732336 9.397015
25 1 1 33.815727 38.553514 9.727699
26 1 1 33.797240 38.635638 10.098258
27 1 1 33.635989 38.853831 10.364321
28 1 1 33.524061 38.650277 10.665050
29 1 1 33.307490 38.765294 10.955340
30 1 1 33.390018 39.110587 11.090846
31 1 1 33.131846 0.114267 11.231220
32 1 1 33.093135 0.052395 11.604145
33 1 1 33.017130 39.060661 11.897732
34 1 1 33.111439 38.985911 12.258174
35 1 1 33.026737 39.224690 12.541388
36 1 1 32.776706 39.115926 12.806067
37 1 1 33.080298 0.102804 12.761316
38 1 1 33.225454 0.448866 12.821071
39 1 1 33.393790 0.693417 12.583884
40 1 1 33.526637 0.766261 12.235394
41 1 1 33.268817 0.644182 11.984345
42 1 1 32.909349 0.573321 11.883541
43 1 1 32.539917 0.638583 11.944047
44 1 1 32.325253 0.372699 12.110254
45 1 1 32.522190 0.047773 12.116488
46 1 1 32.201027 39.156011 12.273371
47 1 1 32.198524 38.780171 12.217351
48 1 1 32.375487 38.499176 12.402082
49 1 1 32.380949 38.120107 12.376059
50 1 1 32.143956 37.831594 12.305389
51 1 1 31.766939 37.874887 12.285794
52 1 1 31.505102 38.079110 12.101039
53 1 1 31.288625 37.853663 11.884911
54 1 1 31.067907 37.860767 11.575665
55 1 1 31.092664 37.820945 11.198570
56 1 1 31.358853 37.691936 10.960032
57 1 1 31.707973 37.841958 10.957011
58 1 1 31.925289 37.834980 10.645362
59 1 1 31.974468 37.952448 10.287336
60 1 1 32.004359 38.311566 10.166751
61 1 1 32.111401 38.567765 9.907321
62 1 1 32.260069 38.532142 9.559430
63 1 1 32.062639 38.546160 9.235046
64 1 1 31.766929 38.780011 9.187406
65 1 1 31.416823 38.739879 9.329587
66 1 1 31.340883 39.024380 9.569780
67 1 1 31.175641 39.227205 9.845383
68 1 1 31.092273 0.206282 9.544292
69 1 1 31.276796 0.057569 9.841336
70 1 1 31.554168 0.186999 10.066532
71 1 1 31.698405 0.245299 10.413226
72 1 1 31.724875 0.019496 10.717712
73 1 1 32.018011 39.181973 10.487751
74 1 1 31.784441 38.969075 10.698749
75 1 1 31.454758 38.940999 10.511878
76 1 1 31.182832 39.185620 10.614915
77 1 1 30.976023 0.007404 10.928198
78 1 1 30.978110 0.244761 10.631454
79 1 1 30.625451 0.292044 10.498051
80 1 1 30.375140 0.468372 10.723113
81 1 1 30.112721 0.740157 10.682251
82 1 1 29.764969 0.711485 10.832738
83 1 1 29.414982 0.788762 10.706495
84 1 1 29.362246 1.159970 10.768330
85 1 1 29.168924 1.390469 11.000487
86 1 1 28.812353 1.374456 11.130876
87 1 1 28.529056 1.259098 11.356343
88 1 1 28.686615 1.069042 11.645226
89 1 1 28.867503 1.299139 11.887580
90 1 1 29.165647 1.474826 12.044564
91 1 1 29.110872 1.850829 12.039921
92 1 1 28.780123 2.008247 11.938803
93 1 1 28.535067 2.294229 11.989414
94 1 1 28.508963 2.637884 12.149476
95 1 1 28.529070 2.739976 12.514953
96 1 1 28.331061 2.620844 12.816615
97 1 1 28.560818 2.637145 13.118850
98 1 1 28.668186 2.356210 13.351116
99 1 1 28.891884 2.228312 13.630404
100 1 1 28.883875 2.200522 14.009301
101 1 1 29.107252 2.438490 14.203913
102 1 1 29.120526 2.799800 14.086956
103 1 1 29.294326 3.098092 14.245751
104 1 1 29.203408 3.229394 14.590560
105 1 1 29.153840 3.526650 14.822038
106 1 1 29.089752 3.883299 14.707610
107 1 1 29.018962 4.213851 14.534047
108 1 1 28.906770 4.561549 14.638540
109 1 1 28.648755 4.796031 14.789691
110 1 1 28.567035 4.943796 15.130114
111 1 1 28.737493 5.253590 15.269296
112 1 1 28.967811 5.437426 15.029385
113 1 1 29.102622 5.296157 14.703395
114 1 1 29.330039 4.993263 14.734008
115 1 1 29.692487 5.029911 14.625897
116 1 1 29.933625 4.928631 14.901569
117 1 1 30.061306 4.717875 15.190842
118 1 1 30.153846 4.353859 15.133150
119 1 1 30.083742 3.989494 15.051150
120 1 1 30.050117 3.617720 15.122235
121 1 1 30.191937 3.283405 15.010341
122 1 1 30.549165 3.176805 14.936687
123 1 1 30.905518 3.082908 15.029401
124 1 1 31.152850 2.847794 14.862223
125 1 1 30.992800 2.538220 14.710738
126 1 1 31.257245 2.269572 14.662809
127 1 1 31.543907 2.053173 14.786890
128 1 1 31.478473 1.733725 14.982010
129 1 1 31.534982 1.367642 15.066803
130 1 1 31.586396 1.031485 14.897229
131 1 1 31.454215 0.861032 14.584381
132 1 1 31.639692 0.903017 14.255390
133 1 1 31.698379 0.831434 13.886836
134 1 1 31.436174 0.599191 13.739488
135 1 1 31.074896 0.716509 13.750222
136 1 1 30.877660 0.825700 13.444322
137 1 1 30.899828 0.876478 13.068382
138 1 1 30.978803 1.216335 12.917850
139 1 1 31.355889 1.252719 12.888152
140 1 1 31.707289 1.139108 12.977656
141 1 1 31.732896 0.766282 12.908769
142 1 1 31.424592 0.564092 13.000790
143 1 1 31.214749 0.264560 13.103971
144 1 1 31.284399 39.192588 12.894361
145 1 1 31.599083 39.026724 13.028014
146 1 1 31.840621 38.841087 12.800862
147 1 1 31.978844 38.536522 12.981235
148 1 1 32.125321 38.204022 13.092538
149 1 1 32.331856 37.899978 13.188977
150 1 1 32.440536 37.536724 13.214170
151 1 1 32.302251 37.259341 13.434025
152 1 1 32.157354 37.006634 13.190008
153 1 1 32.252719 36.651460 13.285699
154 1 1 32.042721 36.474208 13.548154
155 1 1 31.908284 36.232089 13.808356
156 1 1 31.846950 36.413254 14.136711
157 1 1 31.683385 36.748299 14.063287
158 1 1 31.671341 37.078827 14.250385
159 1 1 31.963629 37.320324 14.275819
160 1 1 32.037215 37.620663 14.054954
161 1 1 31.806954 37.664364 13.755838
162 1 1 31.644345 37.743349 13.421593
163 1 1 31.450724 38.033345 13.270553
164 1 1 31.087445 38.040132 13.381828
165 1 1 30.712537 37.982373 13.359286
166 1 1 30.657087 37.644072 13.195341
167 1 1 30.921697 37.425127 13.032725
168 1 1 31.137432 37.112317 13.035626
169 1 1 31.232564 36.774999 13.182481
170 1 1 31.109507 36.468897 12.993911
171 1 1 30.756490 36.387352 12.879329
172 1 1 30.595972 36.457336 12.542081
173 1 1 30.813237 36.391496 12.237350
174 1 1 30.756126 36.273607 11.880642
175 1 1 30.590869 36.519795 11.642983
176 1 1 30.782560 36.847624 11.656515
177 1 1 31.149242 36.766798 11.598109
178 1 1 31.413371 36.947104 11.392863
179 1 1 31.605941 36.671478 11.215813
180 1 1 31.406117 36.493259 10.946168
181 1 1 31.072066 36.312469 10.934983
182 1 1 30.904334 36.081928 11.186214
183 1 1 30.906671 35.714606 11.283520
184 1 1 31.088059 35.391610 11.368210
185 1 1 31.463188 35.348341 11.410707
186 1 1 31.731370 35.216147 11.645235
187 1 1 32.001619 35.147541 11.903418
188 1 1 31.964003 34.783321 12.005048
189 1 1 31.607452 34.653667 12.026530
190 1 1 31.303709 34.715717 12.246279
191 1 1 30.972090 34.552655 12.334823
192 1 1 30.888943 34.209478 12.194408
193 1 1 31.090044 33.898060 12.110880
194 1 1 30.881384 33.635773 11.931807
195 1 1 30.587159 33.639584 11.691355
196 1 1 30.557606 33.558769 11.321226
197 1 1 30.449738 33.443646 10.975522
198 1 1 30.470923 33.353643 10.606943
199 1 1 30.398097 33.254877 10.247302
200 1 1 30.523340 33.490576 9.976820
201 1 1 30.706382 33.709048 9.725492
202 1 1 30.846001 34.033305 9.584911
203 1 1 31.146644 34.065214 9.354702
204 1 1 31.041412 34.174029 9.006154
205 1 1 30.861167 34.502738 8.944011
206 1 1 30.693054 34.827943 8.842129
207 1 1 30.451023 34.906404 8.559879
208 1 1 30.506197 35.244545 8.395513
209 1 1 30.848349 35.304119 8.241295
210 1 1 31.096712 35.017724 8.214957
211 1 1 31.448105 34.877499 8.179462
212 1 1 31.638762 34.679260 7.917258
213 1 1 31.694370 34.405998 7.659119
214 1 1 31.783845 34.377292 7.290920
215 1 1 31.986969 34.325434 6.973980
216 1 1 31.735680 34.210090 6.713308
217 1 1 31.885648 34.133538 6.372648
218 1 1 32.150649 33.867346 6.315057
219 1 1 32.395205 33.591647 6.222419
220 1 1 32.619878 33.285689 6.204758
221 1 1 32.719401 32.928077 6.123462
222 1 1 32.630440 32.678633 5.850949
223 1 1 32.904561 32.437329 5.745925
224 1 1 33.272374 32.480942 5.830846
225 1 1 33.500925 32.186787 5.905927
226 1 1 33.825554 32.335563 6.035855
227 1 1 33.959416 32.691205 6.036234
228 1 1 34.068931 33.050131 5.976414
229 1 1 33.904645 33.385739 6.045533
230 1 1 33.673315 33.483372 6.330759
231 1 1 33.512630 33.214985 6.546510
232 1 1 33.540529 33.144063 6.918790
233 1 1 33.678382 32.896949 7.172426
234 1 1 33.941031 32.655785 7.303786
235 1 1 34.280096 32.500600 7.230623
236 1 1 34.268154 32.145194 7.364579
237 1 1 34.289847 31.905144 7.658357
238 1 1 34.145399 31.817772 7.998799
239 1 1 33.939155 31.883879 8.311039
240 1 1 33.955456 31.563766 8.515152
241 1 1 34.108292 31.496578 8.856512
242 1 1 34.223749 31.432448 9.212823
243 1 1 34.358577 31.093372 9.318883
244 1 1 34.209983 30.791929 9.141535
245 1 1 34.408529 30.761965 8.818918
246 1 1 34.609202 30.547055 8.578202
247 1 1 34.620201 30.317704 8.275420
248 1 1 34.847490 30.013392 8.263825
249 1 1 34.697022 29.669245 8.321464
250 1 1 34.639406 29.315630 8.448100
251 1 1 34.730970 29.048118 8.701977
252 1 1 34.599895 29.123166 9.050670
253 1 1 34.415463 29.439467 9.152348
254 1 1 34.039954 29.497623 9.155644
255 1 1 33.842461 29.323517 9.429658
256 1 1 33.480120 29.426390 9.379398
257 1 1 33.253130 29.277381 9.113557
258 1 1 33.289190 28.945366 8.932267
259 1 1 33.270966 28.565881 8.939912
260 1 1 33.055952 28.264232 9.024631
261 1 1 32.775558 28.019502 9.101355
262 1 1 32.729592 27.714852 9.323786
263 1 1 32.801504 27.498879 9.628063
264 1 1 33.001358 27.358977 9.919414
265 1 1 33.196420 27.488708 10.218614
266 1 1 33.002861 27.438420 10.541733
267 1 1 33.012386 27.165338 10.805807
268 1 1 32.678236 27.113719 10.979242
269 1 1 32.401411 27.044810 10.728205
270 1 1 32.431554 26.794600 10.443800
271 1 1 32.501844 26.431448 10.356739
272 1 1 32.610963 26.310735 10.013342
273 1 1 32.355031 26.091675 9.837525
274 1 1 32.386586 25.797367 9.599224
275 1 1 32.098467 25.784038 9.351817
276 1 1 31.966070 25.742935 8.998007
277 1 1 31.940132 25.838522 8.631141
278 1 1 31.989234 25.704595 8.278931
279 1 1 32.190105 25.724217 7.956959
280 1 1 32.374653 26.049575 7.889995
281 1 1 32.660114 26.049558 8.140817
282 1 1 32.755877 26.024963 8.507730
283 1 1 32.597464 26.243332 8.775349
284 1 1 32.258643 26.379527 8.670224
285 1 1 31.939094 26.519818 8.519868
286 1 1 31.992340 26.893720 8.477890
287 1 1 32.324529 27.059467 8.559001
288 1 1 32.478064 27.148220 8.222921
289 1 1 32.503781 26.852876 7.985200
290 1 1 32.781611 26.599957 7.928255
291 1 1 33.132517 26.712593 8.020875
292 1 1 33.479974 26.779457 8.159447
293 1 1 33.851093 26.841392 8.212690
294 1 1 34.088735 27.027817 8.443281
295 1 1 34.440704 27.126564 8.547046
296 1 1 34.775177 27.172060 8.721566
297 1 1 34.912465 26.977393 9.017635
298 1 1 35.274922 26.903512 8.930650
299 1 1 35.521763 27.164553 9.054452
300 1 1 35.798740 27.222385 8.800800
301 1 1 35.717840 27.275730 8.433364
302 1 1 35.976336 27.315019 8.157617
303 1 1 36.101775 26.983003 8.021858
304 1 1 36.297051 26.720076 7.829151
305 1 1 36.583224 26.576650 8.033930
306 1 1 36.812891 26.367599 7.814954
307 1 1 36.860023 26.307919 7.442641
308 1 1 36.534085 26.318561 7.247574
309 1 1 36.606402 26.472860 6.907924
310 1 1 36.372601 26.737929 6.768371
311 1 1 36.136551 26.613409 6.497861
312 1 1 35.911449 26.378536 6.301485
313 1 1 36.110183 26.064951 6.220431
314 1 1 36.279937 25.921266 6.528551
315 1 1 36.166470 25.718434 6.829191
316 1 1 35.816490 25.621860 6.941386
317 1 1 35.678046 25.864698 7.198802
318 1 1 35.628869 25.890244 7.574740
319 1 1 35.823565 26.117586 7.808853
320 1 1 35.807783 26.268288 8.157335
321 1 1 35.570986 26.066295 8.375340
322 1 1 35.252299 25.933320 8.216732
323 1 1 34.960882 25.961592 8.458965
324 1 1 34.640845 26.166153 8.447500
325 1 1 34.430171 26.175023 8.763629
326 1 1 34.073421 26.197542 8.892557
327 1 1 33.825142 25.957188 9.050630
328 1 1 33.930210 25.795244 9.377945
329 1 1 34.279626 25.729694 9.512152
330 1 1 34.563613 25.516190 9.646939
331 1 1 34.541654 25.141447 9.587901
332 1 1 34.850775 24.920456 9.585234
333 1 1 35.022620 24.737432 9.299977
334 1 1 35.395302 24.800633 9.338887
335 1 1 35.636949 24.961475 9.093658
336 1 1 35.938456 24.820929 8.909974
337 1 1 36.232921 24.580999 8.921116
338 1 1 36.202024 24.202861 8.899738
339 1 1 36.414988 23.954772 8.706093
340 1 1 36.604194 23.630838 8.766654
341 1 1 36.729305 23.338235 8.974333
342 1 1 36.503523 23.135414 9.202996
343 1 1 36.257200 23.006881 9.462233
344 1 1 36.227167 23.080298 9.833862
345 1 1 36.101270 23.248333 10.150587
346 1 1 35.781575 23.450985 10.184163
347 1 1 35.505047 23.527535 9.935021
348 1 1 35.231762 23.789691 9.966481
349 1 1 35.212666 24.159116 10.053431
350 1 1 34.883903 24.333657 10.129921
351 1 1 34.620708 24.592494 10.039745
352 1 1 34.266031 24.717588 9.985377
353 1 1 33.938649 24.761832 9.797591
354 1 1 33.827655 24.497477 9.548198
355 1 1 33.509716 24.635792 9.392688
356 1 1 33.309634 24.645916 9.069788
357 1 1 33.055982 24.429275 8.887779
358 1 1 32.790716 24.221127 9.063017
359 1 1 32.432935 24.333102 9.125096
360 1 1 32.242509 24.010419 9.188447
361 1 1 32.436920 23.717680 9.043851
362 1 1 32.665613 23.447885 8.904889
363 1 1 32.880697 23.458114 8.591785
364 1 1 32.726087 23.495226 8.246649
365 1 1 32.583476 23.416247 7.903393
366 1 1 32.261500 23.587512 7.796625
367 1 1 32.036328 23.712431 8.076076
368 1 1 32.052805 24.086988 8.138011
369 1 1 31.930837 24.404953 7.969424
370 1 1 31.919539 24.744401 7.798991
371 1 1 32.222659 24.969720 7.840822
372 1 1 32.509514 25.083253 8.062687
373 1 1 32.727325 25.337988 8.241764
374 1 1 32.877197 25.431243 8.578278
375 1 1 32.860082 25.529142 8.945051
376 1 1 33.020383 25.838627 9.096454
377 1 1 33.250830 25.911989 9.389562
378 1 1 33.242907 25.602824 9.610365
379 1 1 33.352540 25.253249 9.509480
380 1 1 33.313687 25.047350 9.826491
381 1 1 33.093706 24.875285 10.084177
382 1 1 32.923964 24.537028 10.049969
383 1 1 32.583168 24.474023 10.205815
384 1 1 32.218132 24.370038 10.224142
385 1 1 32.117266 24.362806 10.590439
386 1 1 32.444122 24.313754 10.777945
387 1 1 32.607472 23.972068 10.809042
388 1 1 32.809797 23.914012 10.492665
389 1 1 32.571479 23.740874 10.252608
390 1 1 32.358908 23.811104 9.945555
391 1 1 32.074227 23.592594 9.820615
392 1 1 31.748100 23.407636 9.882516
393 1 1 31.467251 23.621642 10.022962
394 1 1 31.106355 23.536086 9.940291
395 1 1 30.856300 23.504002 9.655962
396 1 1 30.611498 23.534644 9.366941
397 1 1 30.435858 23.619507 9.040829
398 1 1 30.175043 23.351097 8.975013
399 1 1 30.183348 22.971233 8.980901
400 1 1 30.459556 22.749535 9.118593
401 1 1 30.569002 22.414967 9.261723
402 1 1 30.607528 22.224921 9.588523
403 1 1 30.675180 22.299875 9.954863
404 1 1 30.918886 22.036576 10.080088
405 1 1 30.962032 21.674231 9.974049
406 1 1 30.654299 21.457725 9.920887
407 1 1 30.381124 21.308586 9.702867
408 1 1 30.289953 20.944348 9.644401
409 1 1 30.452107 20.605738 9.703137
410 1 1 30.713242 20.330864 9.728678
411 1 1 30.830917 20.091523 9.457996
412 1 1 30.975970 19.745589 9.397260
413 1 1 31.127942 19.422500 9.267189
414 1 1 31.428187 19.204531 9.349304
415 1 1 31.307250 18.902643 9.545869
416 1 1 31.158870 18.552918 9.537166
417 1 1 30.849318 18.463019 9.335930
418 1 1 30.483558 18.565649 9.345243
419 1 1 30.250099 18.428584 9.611908
420 1 1 30.060298 18.153551 9.792828
421 1 1 29.917626 18.044529 10.127730
422 1 1 29.738480 17.713627 10.180744
423 1 1 29.522311 17.570009 9.903175
424 1 1 29.183014 17.401197 9.931100
425 1 1 28.821961 17.361758 9.819362
426 1 1 28.505401 17.461069 10.004637
427 1 1 28.285572 17.395237 10.307526
428 1 1 28.394054 17.624326 10.590634
429 1 1 28.633173 17.433886 10.816366
430 1 1 28.650927 17.060014 10.750759
431 1 1 28.446349 16.774044 10.606644
432 1 1 28.563297 16.518760 10.350610
433 1 1 28.938128 16.560460 10.304100
434 1 1 29.205727 16.303223 10.222738
435 1 1 29.439192 16.199026 10.503873
436 1 1 29.363574 16.365998 10.836743
437 1 1 29.014147 16.413528 10.978311
438 1 1 28.764669 16.606576 11.190191
439 1 1 28.563224 16.337307 11.367150
440 1 1 28.283657 16.360740 11.623458
441 1 1 27.952285 16.344127 11.808704
442 1 1 27.630283 16.216301 11.964831
443 1 1 27.444946 15.891477 11.897460
444 1 1 27.531861 15.522714 11.926776
445 1 1 27.557306 15.263755 11.649841
446 1 1 27.360817 14.953023 11.745954
447 1 1 27.059320 14.782123 11.590092
448 1 1 26.983923 14.918732 11.243605
449 1 1 26.842569 15.271453 11.246213
450 1 1 26.471817 15.288946 11.327677
451 1 1 8.285554 20.108470 15.962305
452 1 1 8.071890 20.407012 16.060390
453 1 1 7.805563 20.644367 16.191281
454 1 1 7.939955 20.992225 16.264312
455 1 1 8.061311 21.346090 16.197591
456 1 1 8.160931 21.633603 15.969968
457 1 1 8.408374 21.921952 15.964781
458 1 1 8.679964 21.955551 16.228429
459 1 1 8.713055 21.709305 16.515950
460 1 1 8.590510 21.544395 16.835617
461 1 1 8.312207 21.327637 16.976909
462 1 1 8.113268 21.072510 17.176241
463 1 1 8.017546 20.706444 17.211364
464 1 1 8.192980 20.480991 17.461951
465 1 1 8.414573 20.468207 17.770388
466 1 1 8.571292 20.122032 17.769091
467 1 1 8.519184 19.750710 17.830773
468 1 1 8.402051 19.489680 18.080860
469 1 1 8.541019 19.176400 18.245004
470 1 1 8.917362 19.212857 18.282910
471 1 1 9.178492 19.480083 18.213619
472 1 1 9.379400 19.796197 18.277714
473 1 1 9.179440 19.986464 18.538893
474 1 1 9.363969 19.982430 18.871057
475 1 1 9.198847 19.795396 19.157681
476 1 1 9.084813 19.644889 19.487444
477 1 1 9.010097 19.275635 19.537132
478 1 1 9.104552 19.077182 19.227141
479 1 1 8.825264 18.829919 19.154621
480 1 1 8.805715 18.451762 19.122759
481 1 1 8.737694 18.122814 19.300428
482 1 1 8.442712 18.034088 19.522944
483 1 1 8.307819 17.680118 19.553090
484 1 1 8.323696 17.303646 19.602252
485 1 1 8.364507 16.925924 19.610030
486 1 1 8.691652 16.834962 19.439437
487 1 1 8.718895 16.609892 19.134476
488 1 1 8.714566 16.750049 18.781294
489 1 1 8.469535 16.589444 18.539290
490 1 1 8.151035 16.412012 18.646415
491 1 1 7.871920 16.663498 18.703420
492 1 1 7.580298 16.829943 18.881333
493 1 1 7.363084 17.026519 19.123357
494 1 1 7.326959 17.010300 19.501288
495 1 1 7.536038 17.069656 19.812998
496 1 1 7.318232 17.255736 20.062667
497 1 1 7.334520 17.456612 20.384821
498 1 1 7.319720 17.820490 20.493329
499 1 1 7.247765 18.168844 20.359643
500 1 1 7.116592 18.303366 20.029344
501 1 1 7.219295 18.091022 19.731414
502 1 1 7.147966 17.843331 19.452199
503 1 1 7.453274 17.817097 19.227479
504 1 1 7.544964 18.160127 19.092116
505 1 1 7.338437 18.464251 19.188320
506 1 1 6.970195 18.371213 19.176398
507 1 1 6.675562 18.477394 18.961183
508 1 1 6.573254 18.214450 18.706637
509 1 1 6.246296 18.092538 18.556185
510 1 1 5.979575 17.972514 18.313587
511 1 1 5.604589 17.912145 18.325485
512 1 1 5.442620 17.699477 18.055415
513 1 1 5.562364 17.341546 18.011289
514 1 1 5.354997 17.029243 17.949117
515 1 1 5.554269 16.820268 17.702094
516 1 1 5.906580 16.693228 17.766418
517 1 1 6.200804 16.648785 17.530078
518 1 1 6.441165 16.829724 17.297941
519 1 1 6.371918 17.063070 17.006128
520 1 1 6.635497 17.302858 16.874114
521 1 1 6.969268 17.121640 16.861568
522 1 1 7.220767 17.307946 17.077063
523 1 1 7.552409 17.439368 17.207991
524 1 1 7.820399 17.546114 16.960632
525 1 1 7.797460 17.757698 16.645820
526 1 1 7.830547 17.845692 16.277632
527 1 1 7.770710 18.106321 16.007647
528 1 1 7.798134 18.415573 15.788533
529 1 1 8.064865 18.645490 15.931335
530 1 1 8.208228 18.981684 16.035359
531 1 1 8.131040 19.214412 15.745050
532 1 1 8.140852 19.460182 15.455393
533 1 1 8.048199 19.592608 15.111476
534 1 1 8.193522 19.773530 14.810563
535 1 1 8.044904 19.670696 14.476291
536 1 1 7.854456 19.343478 14.508816
537 1 1 8.041602 19.017221 14.454662
538 1 1 7.894455 18.678164 14.542913
539 1 1 7.864274 18.414572 14.270869
540 1 1 7.932247 18.040993 14.256080
541 1 1 8.199382 17.868811 14.047772
542 1 1 8.422943 17.578505 13.947060
543 1 1 8.800760 17.546767 13.921622
544 1 1 8.995884 17.867534 13.863014
545 1 1 9.212879 18.172122 13.930391
546 1 1 9.454508 18.232315 13.643350
547 1 1 9.428798 18.104060 13.286573
548 1 1 9.136533 17.912546 13.137230
549 1 1 9.053762 17.579957 12.973116
550 1 1 8.752449 17.443833 13.160413
551 1 1 8.487102 17.675569 13.302854
552 1 1 8.413978 18.048453 13.306028
553 1 1 8.416981 18.211339 12.962722
554 1 1 8.397403 18.130175 12.592008
555 1 1 8.400526 18.115065 12.212321
556 1 1 8.378499 18.390855 11.951832
557 1 1 8.107469 18.388690 11.685489
558 1 1 8.059738 18.309278 11.316958
559 1 1 7.776189 18.056390 11.310052
560 1 1 7.820900 17.836760 11.616913
561 1 1 7.678826 17.554805 11.828375
562 1 1 7.883111 17.234465 11.821337
563 1 1 8.173870 17.175390 12.058759
564 1 1 8.301308 16.820723 12.010064
565 1 1 8.214545 16.641499 12.333716
566 1 1 8.100534 16.279693 12.356037
567 1 1 7.837693 16.220391 12.088086
568 1 1 7.867883 16.095954 11.730309
569 1 1 8.200630 16.122920 11.548781
570 1 1 8.351022 16.081025 11.202332
571 1 1 8.052723 16.091610 10.967161
572 1 1 7.685278 15.995622 10.980217
573 1 1 7.460439 15.721590 11.117163
574 1 1 7.377484 15.350937 11.128772
575 1 1 7.319370 15.009059 10.973394
576 1 1 7.091225 14.729010 10.855401
577 1 1 7.007288 14.472959 11.123342
578 1 1 6.918090 14.477602 11.492695
579 1 1 6.833150 14.137208 11.638700
580 1 1 7.168320 13.965872 11.690710
581 1 1 7.242431 13.828361 12.037117
582 1 1 7.198678 13.924253 12.402207
583 1 1 7.440097 14.111321 12.628310
584 1 1 7.578361 13.888982 12.903716
585 1 1 7.573268 13.634471 13.185847
586 1 1 7.540110 13.319389 13.395666
587 1 1 7.365950 13.106840 13.658138
588 1 1 7.435497 12.748173 13.553634
589 1 1 7.307492 12.446210 13.361714
590 1 1 7.380478 12.495746 12.992094
591 1 1 7.720206 12.603054 12.859921
592 1 1 8.013306 12.373414 12.935802
593 1 1 8.265973 12.544125 13.162555
594 1 1 8.148294 12.547151 13.523861
595 1 1 7.986892 12.488395 13.862826
596 1 1 8.240320 12.619015 14.114049
597 1 1 8.441644 12.686205 14.429253
598 1 1 8.248294 12.524772 14.713779
599 1 1 8.219303 12.464210 15.087801
600 1 1 8.011265 12.150323 15.138740
601 1 1 7.751223 11.874697 15.110310
602 1 1 7.855645 11.514328 15.050061
603 1 1 7.899073 11.447703 14.678476
604 1 1 8.025430 11.560737 14.338392
605 1 1 8.320314 11.800312 14.331532
606 1 1 8.566957 12.032677 14.503503
607 1 1 8.773665 11.832005 14.751298
608 1 1 9.067561 12.050845 14.851963
609 1 1 9.045025 12.141303 15.220351
610 1 1 8.766537 11.953383 15.397920
611 1 1 8.453019 11.812394 15.559871
612 1 1 8.234912 11.516001 15.654637
613 1 1 8.036721 11.279648 15.876578
614 1 1 7.718655 11.164343 16.049605
615 1 1 7.408399 11.115595 16.263533
616 1 1 7.408846 11.048359 16.637537
617 1 1 7.667181 10.965299 16.903552
618 1 1 7.828435 11.082173 17.227184
619 1 1 8.043975 11.117536 17.538137
620 1 1 8.123000 10.827099 17.770088
621 1 1 8.113483 10.448317 17.798971
622 1 1 8.241278 10.306842 18.127685
623 1 1 8.424264 10.099912 18.388638
624 1 1 8.782270 9.972512 18.389147
625 1 1 9.002878 10.108249 18.111104
626 1 1 9.379961 10.149540 18.088671
627 1 1 9.586942 10.340311 18.343946
628 1 1 9.801244 10.076328 18.513615
629 1 1 10.091812 9.831449 18.511359
630 1 1 10.283960 9.799083 18.837598
631 1 1 10.433522 9.537706 19.069359
632 1 1 10.275730 9.236867 19.239646
633 1 1 10.366199 9.147687 19.597783
634 1 1 10.602193 8.851105 19.570464
635 1 1 10.407338 8.577317 19.393063
636 1 1 10.033378 8.528034 19.346958
637 1 1 9.661674 8.596897 19.308306
638 1 1 9.346526 8.803350 19.258721
639 1 1 9.459073 9.135648 19.112739
640 1 1 9.496125 9.169466 18.736065
641 1 1 9.688354 8.863015 18.619719
642 1 1 9.884827 8.919088 18.299323
643 1 1 10.173240 9.100331 18.130891
644 1 1 10.536615 9.020475 18.208231
645 1 1 10.694081 8.904431 18.534019
646 1 1 10.906343 8.942660 18.846882
647 1 1 11.181391 8.918484 19.107965
648 1 1 11.253577 8.786309 19.456847
649 1 1 11.596047 8.625723 19.493262
650 1 1 11.733172 8.271566 19.506291
651 1 1 12.111678 8.305213 19.505181
652 1 1 12.313953 8.204731 19.810776
653 1 1 12.520881 8.131502 20.120967
654 1 1 12.880424 8.253450 20.137028
655 1 1 13.150609 8.039649 19.976750
656 1 1 13.430791 8.053780 19.720433
657 1 1 13.714720 7.801586 19.706906
658 1 1 13.888120 7.538805 19.494119
659 1 1 13.789174 7.408730 19.151059
660 1 1 13.589844 7.091193 19.213007
661 1 1 13.223336 7.163489 19.282615
662 1 1 13.188327 7.498764 19.458016
663 1 1 12.825089 7.565086 19.547790
664 1 1 12.592718 7.667243 19.265004
665 1 1 12.560893 7.959847 19.024649
666 1 1 12.888657 8.000986 18.836824
667 1 1 13.121414 7.941414 18.542417
668 1 1 13.082090 7.644323 18.308771
669 1 1 13.332537 7.372335 18.396513
670 1 1 13.647785 7.209481 18.532518
671 1 1 13.876029 6.923964 18.636368
672 1 1 14.241998 7.015626 18.681807
673 1 1 14.519832 6.886824 18.906792
674 1 1 14.860087 6.961526 18.754983
675 1 1 15.155763 7.110129 18.568187
676 1 1 15.479631 6.923284 18.500372
677 1 1 15.681119 7.149628 18.271089
678 1 1 15.919319 7.180631 17.976642
679 1 1 15.907030 7.113473 17.602826
680 1 1 15.886320 6.858178 17.322120
681 1 1 16.195845 6.641716 17.280429
682 1 1 16.338948 6.368171 17.058856
683 1 1 16.470317 6.107080 17.301701
684 1 1 16.393639 5.986204 17.653709
685 1 1 16.173457 6.251379 17.813715
686 1 1 15.989276 6.424136 18.097674
687 1 1 16.073499 6.495078 18.461368
688 1 1 16.133052 6.469812 18.835821
689 1 1 15.958058 6.230916 19.073951
690 1 1 15.787829 6.004302 19.327069
691 1 1 15.432204 5.906350 19.418369
692 1 1 15.217365 5.804068 19.714650
693 1 1 15.034875 5.472789 19.677882
694 1 1 14.905841 5.350461 19.342046
695 1 1 14.989784 5.610285 19.077764
696 1 1 15.060624 5.676622 18.710366
697 1 1 15.114819 5.881078 18.394676
698 1 1 15.117843 6.205164 18.196284
699 1 1 14.783570 6.296162 18.040140
700 1 1 14.495438 6.543869 18.044789
701 1 1 14.234728 6.682958 17.805866
702 1 1 13.987456 6.402581 17.737708
703 1 1 13.896485 6.051150 17.625368
704 1 1 13.723021 5.780399 17.422873
705 1 1 13.505592 5.471064 17.384973
706 1 1 13.532405 5.103643 17.478155
707 1 1 13.311369 4.969908 17.756826
708 1 1 13.424361 4.979056 18.119523
709 1 1 13.383601 5.223933 18.407227
710 1 1 13.017290 5.323872 18.422348
711 1 1 12.827456 5.408659 18.740427
712 1 1 12.772285 5.595614 19.066623
713 1 1 13.076768 5.721825 19.255728
714 1 1 13.402001 5.594126 19.405115
715 1 1 13.769233 5.511678 19.457493
716 1 1 14.092602 5.619093 19.289284
717 1 1 14.070853 5.899079 19.033286
718 1 1 14.378454 6.122196 19.032627
719 1 1 14.699172 6.241780 18.867583
720 1 1 15.067153 6.283295 18.952827
721 1 1 15.142825 6.537319 19.225124
722 1 1 15.315251 6.524604 19.563513
723 1 1 15.449963 6.524513 19.918834
724 1 1 15.695394 6.810132 19.969680
725 1 1 16.032333 6.985120 19.985532
726 1 1 16.292380 6.834444 20.218067
727 1 1 16.636057 6.682607 20.161214
728 1 1 16.992414 6.581022 20.245414
729 1 1 17.206588 6.269763 20.286002
730 1 1 17.229440 5.995979 20.548528
731 1 1 17.271297 5.671697 20.742150
732 1 1 17.532638 5.412669 20.837045
733 1 1 17.689187 5.120042 20.651945
734 1 1 17.577649 4.760733 20.598503
735 1 1 17.455206 4.605710 20.923119
736 1 1 17.659773 4.448014 21.201838
737 1 1 17.918259 4.194235 21.087028
738 1 1 18.292939 4.130940 21.089967
739 1 1 18.608120 4.270541 20.930052
740 1 1 18.891447 4.377928 20.700719
741 1 1 19.130908 4.083522 20.681130
742 1 1 19.208748 3.777684 20.469460
743 1 1 19.546737 3.634753 20.568120
744 1 1 19.616949 3.282787 20.692980
745 1 1 19.888995 3.033867 20.784795
746 1 1 19.946861 2.662778 20.842624
747 1 1 20.311800 2.589064 20.766558
748 1 1 20.666887 2.614616 20.899451
749 1 1 21.023413 2.483478 20.889884
750 1 1 21.163377 2.245964 21.151414
751 1 1 21.540787 2.203358 21.139338
752 1 1 21.739308 1.879353 21.142595
753 1 1 22.022747 1.925070 20.893653
754 1 1 21.963124 2.117555 20.571481
755 1 1 22.049261 2.260202 20.229967
756 1 1 22.152246 2.437695 19.910138
757 1 1 22.468299 2.627227 19.817468
758 1 1 22.770451 2.816598 19.686156
759 1 1 23.117305 2.666258 19.647552
760 1 1 23.469276 2.808924 19.660319
761 1 1 23.633275 3.151282 19.643138
762 1 1 23.641445 3.339840 19.972954
763 1 1 23.842536 3.662271 19.972173
764 1 1 24.027743 3.923087 19.767055
765 1 1 24.212385 4.036634 19.454942
766 1 1 24.576387 4.143333 19.477706
767 1 1 24.588297 4.523025 19.468119
768 1 1 24.382092 4.735851 19.230245
769 1 1 24.022097 4.631969 19.166902
770 1 1 23.653943 4.585472 19.085042
771 1 1 23.477891 4.302629 19.267815
772 1 1 23.418633 3.976491 19.082013
773 1 1 23.130927 3.860712 18.862422
774 1 1 23.078717 3.514058 18.715776
775 1 1 23.203126 3.535886 18.357383
776 1 1 23.099460 3.531845 17.991819
777 1 1 22.926069 3.583855 17.657707
778 1 1 23.096016 3.889895 17.509864
779 1 1 23.276370 3.879439 17.175555
780 1 1 23.180594 3.810146 16.814410
781 1 1 22.979225 3.819022 16.492274
782 1 1 22.981153 3.987439 16.151639
783 1 1 23.207848 4.274082 16.047501
784 1 1 23.483892 4.118069 15.838074
785 1 1 23.763131 4.176707 15.587102
786 1 1 24.142814 4.191479 15.582302
787 1 1 24.356557 3.959282 15.793959
788 1 1 24.693095 3.923399 15.621174
789 1 1 24.711591 3.608468 15.409333
790 1 1 24.409365 3.387677 15.474989
791 1 1 24.105583 3.478542 15.265560
792 1 1 24.160153 3.523342 14.892177
793 1 1 24.239007 3.569134 14.523280
794 1 1 24.617555 3.598970 14.508735
795 1 1 24.891120 3.738956 14.732266
796 1 1 24.757545 4.075090 14.848765
797 1 1 24.858596 4.381064 15.050181
798 1 1 24.627091 4.674124 14.980034
799 1 1 24.341874 4.917648 14.918817
800 1 1 24.231947 5.258531 15.045761
801 1 1 24.280619 5.466304 15.360183
802 1 1 24.582287 5.573309 15.564992
803 1 1 24.556506 5.934525 15.680138
804 1 1 24.380075 6.123939 15.401939