LAMMPS data file for polymer system

27000 atoms
26940 bonds

1 atom types
1 bond types

0.0 37.837447939934926 xlo xhi
0.0 37.837447939934926 ylo yhi
0.0 37.837447939934926 zlo zhi

Masses

1 5.65487

Atoms

1 1 1 21.564202 8.017686 32.434891
2 1 1 21.817173 8.273078 32.558100
3 1 1 22.102490 8.337536 32.315532
4 1 1 22.071742 8.288846 31.939921
5 1 1 21.898773 8.482489 31.662461
6 1 1 21.526534 8.558841 31.659537
7 1 1 21.494756 8.931180 31.590586
8 1 1 21.803354 9.079168 31.425460
9 1 1 21.913367 8.838410 31.152819
10 1 1 22.244472 8.841538 30.966381
11 1 1 22.567486 8.808173 30.769026
12 1 1 22.580181 8.532266 30.508039
13 1 1 22.619148 8.157612 30.457881
14 1 1 22.355129 7.933029 30.302137
15 1 1 22.097436 7.664767 30.224480
16 1 1 21.766005 7.479214 30.235565
17 1 1 21.420410 7.600324 30.134091
18 1 1 21.169188 7.605713 29.849033
19 1 1 21.158902 7.911399 29.623533
20 1 1 21.107771 8.249495 29.457771
21 1 1 20.948488 8.559428 29.609330
22 1 1 20.773565 8.895486 29.638772
23 1 1 20.906727 9.248453 29.684406
24 1 1 20.880952 9.589459 29.850088
25 1 1 20.709884 9.739034 30.154658
26 1 1 20.363874 9.894746 30.133892
27 1 1 20.078713 10.145874 30.129681
28 1 1 20.044842 10.524356 30.127756
29 1 1 19.743499 10.751743 30.171202
30 1 1 19.522247 10.847110 29.877343
31 1 1 19.541698 11.116720 29.610263
32 1 1 19.706551 11.435682 29.485816
33 1 1 19.528099 11.686446 29.262943
34 1 1 19.630330 11.954868 29.014149
35 1 1 19.741143 11.885039 28.657435
36 1 1 19.535230 12.055203 28.387167
37 1 1 19.678532 12.268267 28.107046
38 1 1 19.592706 12.635767 28.062573
39 1 1 19.383990 12.952852 28.045406
40 1 1 19.239741 13.056817 28.381238
41 1 1 19.098371 13.256899 28.671723
42 1 1 18.842706 13.056239 28.868626
43 1 1 18.648329 13.010598 29.191944
44 1 1 18.463844 12.736505 29.379664
45 1 1 18.424140 12.518434 29.688320
46 1 1 18.401632 12.147433 29.767386
47 1 1 18.238694 11.990656 29.461981
48 1 1 18.175111 12.076498 29.097305
49 1 1 17.845792 11.997946 28.924742
50 1 1 17.590671 12.165573 28.698436
51 1 1 17.435260 12.499530 28.791820
52 1 1 17.084309 12.636109 28.842607
53 1 1 16.717148 12.636359 28.744664
54 1 1 16.350765 12.555863 28.683970
55 1 1 16.283983 12.213081 28.833773
56 1 1 16.283979 11.833407 28.818034
57 1 1 16.009597 11.653660 28.626185
58 1 1 15.697637 11.454877 28.713168
59 1 1 15.496696 11.152818 28.600105
60 1 1 15.120370 11.148932 28.547536
61 1 1 15.001546 11.070843 28.195140
62 1 1 15.251025 11.186429 27.932842
63 1 1 15.543494 11.067209 27.721539
64 1 1 15.510124 10.899400 27.382236
65 1 1 15.599460 10.664058 27.097572
66 1 1 15.813753 10.366189 27.196326
67 1 1 15.636026 10.033402 27.150878
68 1 1 15.714773 9.661657 27.148714
69 1 1 15.893258 9.370249 27.314919
70 1 1 15.730372 9.268972 27.642961
71 1 1 15.731075 9.003681 27.915027
72 1 1 15.394872 8.922875 28.072628
73 1 1 15.474446 8.835333 28.433744
74 1 1 15.712555 8.569796 28.564869
75 1 1 15.740019 8.416542 28.911509
76 1 1 15.460911 8.307723 29.145298
77 1 1 15.160290 8.077733 29.178933
78 1 1 14.801915 7.955968 29.212710
79 1 1 14.425275 8.005491 29.222178
80 1 1 14.163406 7.743298 29.306315
81 1 1 14.114322 7.450554 29.069057
82 1 1 13.744807 7.453872 28.980471
83 1 1 13.705557 7.394526 28.607191
84 1 1 13.518598 7.666517 28.418865
85 1 1 13.345637 7.591065 28.089029
86 1 1 13.088433 7.861715 28.018357
87 1 1 12.756059 7.739835 27.880255
88 1 1 12.823423 7.472784 27.618443
89 1 1 12.524409 7.240476 27.586446
90 1 1 12.530165 6.863406 27.633191
91 1 1 12.635006 6.796844 27.992326
92 1 1 12.891918 6.561173 28.143505
93 1 1 13.058782 6.756705 28.423369
94 1 1 13.151219 7.053075 28.642505
95 1 1 13.040395 6.969585 28.996268
96 1 1 12.692586 6.984972 29.148555
97 1 1 12.718161 7.096020 29.511066
98 1 1 12.967486 7.242525 29.757589
99 1 1 13.220127 7.314622 30.032133
100 1 1 13.430635 7.512915 30.278641
101 1 1 13.542711 7.621660 30.625071
102 1 1 13.830720 7.553308 30.863354
103 1 1 14.204517 7.564271 30.795862
104 1 1 14.385602 7.507322 30.466673
105 1 1 14.606067 7.692104 30.218378
106 1 1 14.932665 7.647741 30.029261
107 1 1 15.184470 7.363421 30.016737
108 1 1 15.302078 7.002134 30.023021
109 1 1 14.996425 6.778708 30.055537
110 1 1 15.050795 6.426443 30.187268
111 1 1 14.890792 6.090684 30.109390
112 1 1 14.734949 5.788534 30.279150
113 1 1 14.814794 5.568469 30.578477
114 1 1 14.718559 5.713994 30.916058
115 1 1 14.993958 5.936566 31.053961
116 1 1 15.365030 5.913941 31.132662
117 1 1 15.575671 6.218041 31.045750
118 1 1 15.811752 6.428964 31.255934
119 1 1 15.995323 6.315021 31.568534
120 1 1 16.268227 6.072036 31.672851
121 1 1 16.495691 5.962188 31.388961
122 1 1 16.624717 6.193442 31.116429
123 1 1 16.758982 6.548386 31.096743
124 1 1 16.638219 6.846016 30.893684
125 1 1 16.782429 6.903623 30.546862
126 1 1 17.151155 6.811764 30.548502
127 1 1 17.289412 6.763970 30.197788
128 1 1 17.666093 6.744899 30.151448
129 1 1 18.010603 6.625707 30.258716
130 1 1 18.330217 6.796390 30.144200
131 1 1 18.690150 6.806780 30.265610
132 1 1 18.962094 6.771650 30.002528
133 1 1 19.318910 6.848541 30.108216
134 1 1 19.551596 6.868071 30.408009
135 1 1 19.786808 6.579471 30.484071
136 1 1 19.690508 6.291585 30.712649
137 1 1 19.637784 5.942384 30.572367
138 1 1 19.493033 5.642972 30.756213
139 1 1 19.562670 5.276851 30.830417
140 1 1 19.410587 5.056194 30.561007
141 1 1 19.650722 4.770648 30.488906
142 1 1 19.644849 4.399495 30.407597
143 1 1 19.852353 4.147147 30.213530
144 1 1 20.170514 3.968047 30.108188
145 1 1 20.328060 3.658679 29.953686
146 1 1 20.343800 3.367318 29.710251
147 1 1 20.684918 3.200291 29.698385
148 1 1 20.679984 2.832342 29.793196
149 1 1 20.436765 2.742165 30.070888
150 1 1 20.465521 3.014735 30.334096
151 1 1 20.737390 2.934552 30.587193
152 1 1 20.941725 3.093105 30.865596
153 1 1 21.197758 3.373875 30.869515
154 1 1 21.539998 3.351797 31.033173
155 1 1 21.653868 3.297418 31.391610
156 1 1 21.890558 3.346336 31.684842
157 1 1 22.106421 3.525536 31.941144
158 1 1 22.041020 3.474983 32.312044
159 1 1 21.977439 3.537819 32.681380
160 1 1 22.220219 3.780729 32.844023
161 1 1 22.360735 3.978266 33.136657
162 1 1 22.200880 3.876955 33.466175
163 1 1 21.925923 4.072826 33.640626
164 1 1 22.044968 4.282441 33.934377
165 1 1 22.411568 4.363120 33.993499
166 1 1 22.756419 4.487005 33.892850
167 1 1 23.015123 4.738112 34.012923
168 1 1 23.291423 4.980893 33.917448
169 1 1 23.616761 5.132668 33.792869
170 1 1 23.819138 5.354605 34.025650
171 1 1 23.712558 5.441740 34.379837
172 1 1 23.737916 5.494780 34.755262
173 1 1 23.444570 5.681762 34.908187
174 1 1 23.076175 5.598302 34.866717
175 1 1 22.886317 5.893649 34.721376
176 1 1 23.113985 6.193933 34.672419
177 1 1 23.076452 6.567846 34.616024
178 1 1 22.838082 6.845472 34.513538
179 1 1 22.798746 7.144663 34.744487
180 1 1 22.453027 7.212626 34.886822
181 1 1 22.370929 7.567933 34.779970
182 1 1 22.452969 7.878697 34.577251
183 1 1 22.307154 7.926617 34.229628
184 1 1 21.991217 8.033918 34.047775
185 1 1 21.744590 7.796452 33.882896
186 1 1 21.492741 7.667150 34.136378
187 1 1 21.263545 7.369926 34.195763
188 1 1 21.121776 7.170453 34.486473
189 1 1 21.069493 6.795423 34.454552
190 1 1 20.978598 6.738152 34.090055
191 1 1 20.975050 6.490499 33.801863
192 1 1 21.014738 6.265634 33.498118
193 1 1 21.046595 5.887318 33.481920
194 1 1 20.809081 5.611658 33.591458
195 1 1 20.549262 5.594789 33.868242
196 1 1 20.273359 5.519780 34.118545
197 1 1 20.044487 5.216702 34.131232
198 1 1 19.902437 5.084672 33.804445
199 1 1 19.787818 4.788064 33.596391
200 1 1 19.568617 4.773872 33.286311
201 1 1 19.439006 4.846022 32.936461
202 1 1 19.591722 4.656701 32.644511
203 1 1 19.814464 4.385281 32.789829
204 1 1 19.675334 4.058858 32.925809
205 1 1 19.439036 3.938050 33.197781
206 1 1 19.128789 3.718665 33.193617
207 1 1 18.893558 3.717794 33.492055
208 1 1 18.895838 4.019125 33.723559
209 1 1 18.572556 4.168506 33.856125
210 1 1 18.197214 4.187211 33.799832
211 1 1 17.856384 4.109272 33.948695
212 1 1 17.851497 3.954746 34.295823
213 1 1 17.938761 4.113672 34.629781
214 1 1 18.048774 3.956941 34.958007
215 1 1 18.279112 3.673018 35.061604
216 1 1 18.234887 3.337662 34.888454
217 1 1 18.466200 3.047307 34.807287
218 1 1 18.714594 3.166941 34.545776
219 1 1 19.050612 3.033317 34.428999
220 1 1 19.404805 3.170960 34.427766
221 1 1 19.532704 3.274314 34.085188
222 1 1 19.681299 3.466513 33.792991
223 1 1 19.638546 3.843811 33.807785
224 1 1 19.894715 4.123254 33.834042
225 1 1 19.970493 4.206643 34.196952
226 1 1 20.054439 4.071796 34.542161
227 1 1 20.126374 4.261082 34.863714
228 1 1 20.273634 4.598307 34.958547
229 1 1 20.121763 4.875754 35.169162
230 1 1 20.360195 5.135299 35.311240
231 1 1 20.689923 4.958861 35.378689
232 1 1 20.945866 5.223309 35.473348
233 1 1 21.190279 5.444275 35.662652
234 1 1 21.272373 5.746664 35.447660
235 1 1 21.314603 5.914448 35.109333
236 1 1 21.342113 6.123841 34.793426
237 1 1 21.539641 6.430906 34.898750
238 1 1 21.901269 6.444838 34.782857
239 1 1 22.013452 6.725568 34.552628
240 1 1 21.986327 6.764964 34.175650
241 1 1 21.804983 6.758837 33.841769
242 1 1 22.049032 6.657410 33.568725
243 1 1 22.417938 6.733307 33.518245
244 1 1 22.650099 6.670628 33.812477
245 1 1 22.989575 6.798504 33.925632
246 1 1 23.353315 6.896822 33.974896
247 1 1 23.705734 6.994887 33.872018
248 1 1 24.020411 7.168770 33.995075
249 1 1 24.319928 6.936532 34.022562
250 1 1 24.607630 6.744920 33.864726
251 1 1 24.858229 6.524869 34.046873
252 1 1 25.034042 6.188009 34.050811
253 1 1 25.411056 6.154820 34.084855
254 1 1 25.633290 6.356294 33.851575
255 1 1 25.533500 6.493901 33.511712
256 1 1 25.459070 6.860865 33.576500
257 1 1 25.114446 7.018626 33.549191
258 1 1 24.971843 7.288472 33.775570
259 1 1 24.814104 7.299586 34.121106
260 1 1 24.972861 7.520741 34.386222
261 1 1 24.840500 7.750751 34.658208
262 1 1 25.075183 8.010798 34.805515
263 1 1 25.364285 8.110382 34.579898
264 1 1 25.371795 8.426441 34.369065
265 1 1 25.113486 8.661341 34.519059
266 1 1 24.880100 8.838730 34.277266
267 1 1 24.527710 8.902768 34.150298
268 1 1 24.162139 8.955069 34.239866
269 1 1 24.137685 9.108465 34.586668
270 1 1 24.358825 9.371867 34.748273
271 1 1 24.644333 9.521386 34.546954
272 1 1 24.931179 9.666146 34.749843
273 1 1 25.103796 9.484395 35.035447
274 1 1 25.339931 9.195894 35.108984
275 1 1 25.542354 9.023045 35.380181
276 1 1 25.884571 9.066607 35.539523
277 1 1 26.213389 8.878617 35.508891
278 1 1 26.484415 8.653546 35.366454
279 1 1 26.527353 8.308467 35.213232
280 1 1 26.399336 8.204157 34.870988
281 1 1 26.194980 7.897725 34.777512
282 1 1 25.978018 7.837261 34.471453
283 1 1 26.042517 8.056839 34.168096
284 1 1 26.303856 8.228523 33.952163
285 1 1 26.282575 8.273057 33.575382
286 1 1 26.044406 8.382842 33.300386
287 1 1 26.065844 8.510518 32.943119
288 1 1 25.725575 8.649666 32.846918
289 1 1 25.697178 9.012624 32.738038
290 1 1 25.467161 9.298677 32.639723
291 1 1 25.146840 9.464296 32.519871
292 1 1 25.011819 9.673496 32.806933
293 1 1 25.133241 9.926394 33.063253
294 1 1 25.001720 9.932497 33.419714
295 1 1 25.041751 9.999412 33.791628
296 1 1 25.267913 9.890601 34.076954
297 1 1 25.573943 9.935253 34.297753
298 1 1 25.653462 9.764182 34.627619
299 1 1 25.840637 9.530325 34.861449
300 1 1 26.068616 9.506555 35.164534
301 1 1 26.296835 9.707142 35.392746
302 1 1 26.668375 9.630644 35.415249
303 1 1 26.883055 9.860218 35.201688
304 1 1 26.978208 10.211591 35.092678
305 1 1 26.728064 10.451804 34.937354
306 1 1 26.365347 10.562852 34.914899
307 1 1 26.027966 10.395395 34.965221
308 1 1 25.828240 10.413364 35.288001
309 1 1 25.619058 10.469333 35.600267
310 1 1 25.353444 10.198960 35.627605
311 1 1 25.110204 9.958845 35.461536
312 1 1 24.896016 9.682793 35.610930
313 1 1 24.538365 9.634466 35.729885
314 1 1 24.521202 9.393502 36.023214
315 1 1 24.781273 9.441546 36.296078
316 1 1 25.034594 9.483223 36.576242
317 1 1 25.073810 9.543505 36.949375
318 1 1 24.977122 9.354665 37.264638
319 1 1 25.245984 9.145393 37.432917
320 1 1 25.481480 8.847225 37.439053
321 1 1 25.411295 8.501879 37.581215
322 1 1 25.424653 8.221659 37.324898
323 1 1 25.754974 8.046209 37.257774
324 1 1 25.944475 8.067645 36.929095
325 1 1 26.245424 8.299644 36.926606
326 1 1 26.462840 8.314987 36.615326
327 1 1 26.627537 8.494195 36.323504
328 1 1 26.764456 8.734942 36.063324
329 1 1 26.767817 9.031191 35.825363
330 1 1 26.708871 9.351535 36.021079
331 1 1 26.657167 9.723562 36.078722
332 1 1 26.384259 9.980789 36.140000
333 1 1 26.047986 9.803815 36.141138
334 1 1 25.716572 9.804226 36.327053
335 1 1 25.500270 9.872481 36.631938
336 1 1 25.592011 10.196281 36.808396
337 1 1 25.788190 10.279142 37.123114
338 1 1 25.522219 10.323517 37.390865
339 1 1 25.302795 10.013412 37.400230
340 1 1 24.978375 10.121605 37.234563
341 1 1 24.629376 10.184116 37.371284
342 1 1 24.532305 10.424564 37.649065
343 1 1 24.253776 10.680363 37.686325
344 1 1 24.233434 10.656294 0.227568
345 1 1 24.387845 10.841167 0.521472
346 1 1 24.569678 11.174767 0.528356
347 1 1 24.923145 11.142854 0.392552
348 1 1 25.187743 10.872126 0.425629
349 1 1 25.530759 10.987589 0.541424
350 1 1 25.770541 11.159457 0.301912
351 1 1 26.068546 11.196190 0.069010
352 1 1 26.432497 11.102146 0.124645
353 1 1 26.541142 11.306272 0.426189
354 1 1 26.669874 11.662499 0.456694
355 1 1 27.001233 11.792451 0.589787
356 1 1 27.238719 11.772805 0.885784
357 1 1 27.613464 11.812860 0.934382
358 1 1 27.836609 11.866019 0.631429
359 1 1 27.938989 11.587621 0.393915
360 1 1 27.704840 11.389786 0.169337
361 1 1 27.654062 11.575440 37.679136
362 1 1 27.810728 11.379160 37.393952
363 1 1 27.587955 11.395395 37.086530
364 1 1 27.388506 11.191535 36.835410
365 1 1 27.215317 11.451057 36.618491
366 1 1 27.028563 11.487797 36.289594
367 1 1 26.764061 11.515639 36.018184
368 1 1 26.408333 11.604098 35.918022
369 1 1 26.082509 11.578502 35.724156
370 1 1 25.811910 11.349657 35.587021
371 1 1 25.967271 11.173746 35.288159
372 1 1 26.234774 11.154645 35.018943
373 1 1 26.339554 11.352490 34.711895
374 1 1 26.335230 11.714692 34.826748
375 1 1 26.604203 11.938422 34.678430
376 1 1 26.808832 11.835107 34.375357
377 1 1 26.823035 11.877397 33.997985
378 1 1 26.553393 12.062841 33.804843
379 1 1 26.386347 12.396161 33.731400
380 1 1 26.147726 12.677391 33.639917
381 1 1 25.918024 12.694877 33.337706
382 1 1 25.560252 12.655646 33.215804
383 1 1 25.318438 12.934485 33.125387
384 1 1 24.947218 12.985091 33.188903
385 1 1 24.574706 12.923549 33.231885
386 1 1 24.332350 12.647821 33.133710
387 1 1 24.115762 12.429306 33.356736
388 1 1 23.783603 12.279380 33.464403
389 1 1 23.536132 12.327446 33.180066
390 1 1 23.664445 12.123776 32.886035
391 1 1 23.984075 11.930725 32.956523
392 1 1 24.326289 11.916103 33.121070
393 1 1 24.552673 11.655549 32.962131
394 1 1 24.758387 11.503041 32.681377
395 1 1 24.806581 11.205150 32.450425
396 1 1 24.524769 10.952837 32.486759
397 1 1 24.407711 10.830411 32.146598
398 1 1 24.506655 10.789569 31.781987
399 1 1 24.734451 10.545413 31.600610
400 1 1 24.882888 10.347941 31.311870
401 1 1 24.942779 10.206207 30.964415
402 1 1 25.303989 10.100607 30.911725
403 1 1 25.624582 10.161049 30.716874
404 1 1 25.962857 10.323025 30.655773
405 1 1 26.279545 10.366190 30.450235
406 1 1 26.589510 10.179366 30.334399
407 1 1 26.901695 10.154686 30.119151
408 1 1 26.889879 10.182089 29.740324
409 1 1 26.940231 9.832384 29.600426
410 1 1 27.147187 9.536729 29.481442
411 1 1 27.186159 9.377333 29.138697
412 1 1 27.185513 9.025428 28.995302
413 1 1 27.056304 8.783098 29.257946
414 1 1 27.330961 8.608318 29.453945
415 1 1 27.694550 8.633601 29.561480
416 1 1 28.048657 8.716576 29.671587
417 1 1 28.200876 8.482329 29.929188
418 1 1 28.409524 8.167799 29.885181
419 1 1 28.782054 8.095203 29.866439
420 1 1 28.808272 7.795462 29.634345
421 1 1 28.472045 7.635555 29.558313
422 1 1 28.518602 7.299673 29.386803
423 1 1 28.214192 7.073500 29.362717
424 1 1 27.969276 7.001614 29.644229
425 1 1 27.598770 6.961059 29.570199
426 1 1 27.468952 6.662376 29.765993
427 1 1 27.439179 6.339344 29.963893
428 1 1 27.201484 6.064044 29.853842
429 1 1 27.099611 5.794905 29.605677
430 1 1 26.867133 5.727023 29.312853
431 1 1 26.907845 5.877384 28.966249
432 1 1 27.150362 6.166669 28.922663
433 1 1 27.099895 6.422892 29.198712
434 1 1 26.784907 6.486421 29.401559
435 1 1 26.442746 6.405702 29.545816
436 1 1 26.089239 6.540497 29.510277
437 1 1 25.772951 6.333210 29.472941
438 1 1 25.496181 6.287174 29.216661
439 1 1 25.166073 6.402413 29.365484
440 1 1 24.806928 6.284233 29.327417
441 1 1 24.473173 6.106700 29.288823
442 1 1 24.284853 6.138774 29.617315
443 1 1 24.066375 5.828542 29.637894
444 1 1 23.944374 5.472119 29.687674
445 1 1 23.869949 5.174593 29.463309
446 1 1 23.790038 4.925305 29.187864
447 1 1 23.667031 4.997522 28.835651
448 1 1 23.315723 4.863015 28.781892
449 1 1 23.023374 4.788718 28.550780
450 1 1 22.761278 4.995401 28.369155
451 1 1 0.173323 37.487091 29.775794
452 1 1 0.402501 37.278821 29.996022
453 1 1 0.595755 36.985719 29.850611
454 1 1 0.845359 36.936151 29.568404
455 1 1 1.044558 37.214237 29.402911
456 1 1 1.258469 37.518105 29.323501
457 1 1 1.367101 37.507649 28.959509
458 1 1 1.702575 37.583463 28.797924
459 1 1 1.607974 0.073169 28.966510
460 1 1 1.508721 0.022387 28.603233
461 1 1 1.403994 0.361766 28.468125
462 1 1 1.403413 0.511390 28.118822
463 1 1 1.673920 0.589218 27.863541
464 1 1 1.957558 0.613946 27.611870
465 1 1 2.068162 0.261016 27.524652
466 1 1 2.194537 0.099245 27.204872
467 1 1 1.946798 37.649359 27.226440
468 1 1 1.893276 37.683996 27.601054
469 1 1 1.612738 37.492510 27.771440
470 1 1 1.361716 37.291323 27.973708
471 1 1 1.016980 37.397383 27.854090
472 1 1 0.760692 37.571191 28.074333
473 1 1 0.502929 37.673495 28.334126
474 1 1 0.715604 0.142443 28.406864
475 1 1 0.855711 0.137570 28.053670
476 1 1 0.703281 0.114786 27.706329
477 1 1 0.469854 0.304496 27.474118
478 1 1 0.184696 0.421425 27.696408
479 1 1 37.755343 0.513247 27.441878
480 1 1 37.719475 0.294914 27.132938
481 1 1 37.423787 0.057559 27.107815
482 1 1 37.737322 37.705072 27.207918
483 1 1 37.471892 37.457484 27.095458
484 1 1 37.175786 37.444652 27.333274
485 1 1 36.953285 37.140816 27.384040
486 1 1 36.853095 37.000065 27.722494
487 1 1 36.600379 37.184214 27.938419
488 1 1 36.713788 37.546300 27.959212
489 1 1 36.986844 37.803553 28.019724
490 1 1 36.625519 0.083638 28.014243
491 1 1 36.304050 0.276370 27.951692
492 1 1 36.026250 0.473026 28.120671
493 1 1 35.970158 0.302326 28.455507
494 1 1 36.125208 0.490229 28.747144
495 1 1 36.473444 0.354744 28.816246
496 1 1 36.584482 0.152483 29.118175
497 1 1 36.693943 37.694220 29.330244
498 1 1 36.320744 37.631653 29.295490
499 1 1 36.061264 37.474953 29.066328
500 1 1 35.702942 37.490273 28.940748
501 1 1 35.419533 37.703372 28.804117
502 1 1 35.388628 0.239744 28.743255
503 1 1 35.232312 0.585395 28.721113
504 1 1 35.295915 0.928727 28.871037
505 1 1 35.150886 1.222001 29.064317
506 1 1 35.415365 1.465087 29.188255
507 1 1 35.657347 1.312370 29.438299
508 1 1 35.640633 1.315526 29.817918
509 1 1 35.713059 1.223658 30.179463
510 1 1 35.420055 1.211022 30.421102
511 1 1 35.154229 0.965767 30.537665
512 1 1 35.220559 0.601047 30.621207
513 1 1 35.333395 0.241943 30.673291
514 1 1 35.170967 0.108921 30.990028
515 1 1 35.298157 37.589492 30.960682
516 1 1 35.004884 37.645512 30.725624
517 1 1 34.713527 37.754834 30.507541
518 1 1 34.496259 37.447197 30.456999
519 1 1 34.450741 37.128116 30.658283
520 1 1 34.674933 36.836261 30.563632
521 1 1 34.631803 36.522451 30.773544
522 1 1 34.644708 36.166691 30.640623
523 1 1 34.318078 36.061189 30.477582
524 1 1 34.051827 36.085455 30.747621
525 1 1 33.784094 36.330142 30.634275
526 1 1 33.705086 36.519919 30.314677
527 1 1 33.534707 36.447921 29.982733
528 1 1 33.674157 36.575815 29.653192
529 1 1 33.576182 36.349104 29.364396
530 1 1 33.469118 36.050185 29.155627
531 1 1 33.451627 35.751720 28.921078
532 1 1 33.225999 35.620313 28.644991
533 1 1 32.991791 35.322178 28.619256
534 1 1 32.668234 35.455807 28.471425
535 1 1 32.310600 35.333462 28.510537
536 1 1 32.031057 35.250630 28.754246
537 1 1 31.651105 35.253454 28.748873
538 1 1 31.371764 35.387356 28.968962
539 1 1 31.166351 35.697515 29.046463
540 1 1 30.818993 35.846213 29.006076
541 1 1 30.513547 35.736779 28.808270
542 1 1 30.193506 35.541198 28.869278
543 1 1 29.896763 35.698212 28.691259
544 1 1 29.714137 36.005427 28.562160
545 1 1 29.342901 36.029101 28.484551
546 1 1 29.116946 35.761955 28.336302
547 1 1 28.756642 35.881944 28.349838
548 1 1 28.488702 35.961004 28.092239
549 1 1 28.394077 35.930292 27.725492
550 1 1 28.367533 36.284026 27.589229
551 1 1 28.440812 36.603808 27.397474
552 1 1 28.542939 36.965387 27.340637
553 1 1 28.744522 37.287146 27.355981
554 1 1 28.896589 37.627923 27.284238
555 1 1 28.825234 0.150686 27.186479
556 1 1 29.007588 0.449309 27.038253
557 1 1 28.840654 0.587727 26.726206
558 1 1 28.733991 0.823965 26.448331
559 1 1 29.003846 1.022167 26.268624
560 1 1 29.047599 1.079644 25.895553
561 1 1 29.218585 0.778551 25.739005
562 1 1 29.157787 0.457935 25.933707
563 1 1 29.196400 0.244684 26.245850
564 1 1 29.240354 37.821943 25.972408
565 1 1 28.968768 37.629117 25.789490
566 1 1 28.754520 37.324637 25.865581
567 1 1 28.683330 37.088498 25.576497
568 1 1 28.685883 36.900970 25.246002
569 1 1 28.807174 36.843520 24.890491
570 1 1 29.114471 36.748204 24.688295
571 1 1 29.322980 36.589372 24.413165
572 1 1 29.227194 36.252742 24.265162
573 1 1 28.865008 36.258616 24.150327
574 1 1 28.489076 36.290748 24.105139
575 1 1 28.214852 36.393302 23.862891
576 1 1 28.266856 36.212379 23.532797
577 1 1 28.579275 35.996062 23.534015
578 1 1 28.518676 35.659507 23.699721
579 1 1 28.200944 35.564499 23.885246
580 1 1 27.960639 35.435157 24.149678
581 1 1 27.701453 35.663051 24.308697
582 1 1 27.726436 35.849863 24.638663
583 1 1 27.982807 35.726086 24.890363
584 1 1 28.178023 35.410375 24.971711
585 1 1 28.138549 35.045928 24.871611
586 1 1 28.158111 34.769218 24.611901
587 1 1 28.321913 34.427344 24.585606
588 1 1 28.699298 34.418459 24.629209
589 1 1 28.766182 34.437886 25.002771
590 1 1 28.732322 34.721250 25.253686
591 1 1 28.554621 34.906809 25.533668
592 1 1 28.527970 34.912277 25.912693
593 1 1 28.180411 35.025248 26.016810
594 1 1 28.016109 35.039971 26.359138
595 1 1 28.210723 35.037064 26.685507
596 1 1 28.477595 34.821619 26.849101
597 1 1 28.485791 34.443085 26.881428
598 1 1 28.700330 34.131543 26.917677
599 1 1 28.922199 34.107342 27.225230
600 1 1 29.271196 33.970110 27.163841
601 1 1 29.502650 33.743505 26.965148
602 1 1 29.598460 33.473577 26.715429
603 1 1 29.768057 33.222349 26.486254
604 1 1 30.084043 33.012380 26.507827
605 1 1 30.225628 32.686568 26.642737
606 1 1 30.345938 32.353639 26.780880
607 1 1 30.388140 31.978787 26.826767
608 1 1 30.567296 31.876981 27.146045
609 1 1 30.573915 31.868794 27.525899
610 1 1 30.271835 31.707703 27.690815
611 1 1 29.952770 31.604233 27.512233
612 1 1 29.772494 31.305809 27.361092
613 1 1 29.418167 31.169845 27.380228
614 1 1 29.049924 31.182905 27.287346
615 1 1 28.783393 31.004386 27.083650
616 1 1 28.539244 30.795695 26.880575
617 1 1 28.695909 30.468644 26.767024
618 1 1 29.055345 30.455817 26.889669
619 1 1 29.296412 30.456064 26.595923
620 1 1 29.516996 30.158070 26.512605
621 1 1 29.319821 29.836684 26.465348
622 1 1 29.095619 29.899695 26.165076
623 1 1 29.086189 30.066208 25.823632
624 1 1 29.401433 30.126010 25.620052
625 1 1 29.755632 30.248766 25.682292
626 1 1 29.870971 30.461789 25.975069
627 1 1 29.865558 30.654926 26.302283
628 1 1 29.914815 30.996305 26.461763
629 1 1 30.215861 31.227197 26.440314
630 1 1 30.462001 31.312973 26.716823
631 1 1 30.444734 31.021544 26.960075
632 1 1 30.169807 30.816828 27.124107
633 1 1 30.104768 30.444100 27.088843
634 1 1 30.231511 30.093347 27.015978
635 1 1 30.187676 29.941347 26.670472
636 1 1 29.963919 29.634929 26.649467
637 1 1 29.950055 29.255349 26.638192
638 1 1 29.888243 28.952175 26.858792
639 1 1 30.194796 28.727630 26.860956
640 1 1 30.271852 28.415062 26.659056
641 1 1 30.118622 28.426232 26.311499
642 1 1 30.406299 28.408731 26.063839
643 1 1 30.612211 28.485724 25.753883
644 1 1 30.965728 28.416450 25.632941
645 1 1 31.255954 28.469970 25.393558
646 1 1 31.318369 28.575709 25.033943
647 1 1 31.075341 28.611754 24.744049
648 1 1 30.852248 28.369611 24.554322
649 1 1 31.059573 28.089363 24.403068
650 1 1 31.309288 27.922637 24.635974
651 1 1 31.214051 27.599808 24.812358
652 1 1 31.209676 27.219833 24.812489
653 1 1 31.140204 27.051290 24.479072
654 1 1 30.867946 27.221672 24.275982
655 1 1 30.550590 27.039794 24.173001
656 1 1 30.501742 26.805738 23.877651
657 1 1 30.126309 26.776056 23.826961
658 1 1 29.848201 26.529236 23.905293
659 1 1 29.707886 26.597832 24.251712
660 1 1 29.343223 26.663798 24.335793
661 1 1 29.022396 26.473678 24.262824
662 1 1 28.707273 26.261435 24.255740
663 1 1 28.453565 26.101782 24.489285
664 1 1 28.317176 25.870364 24.758067
665 1 1 28.475394 25.525090 24.770433
666 1 1 28.663677 25.211521 24.667358
667 1 1 28.580425 25.001334 24.361923
668 1 1 28.492742 25.167465 24.031602
669 1 1 28.612430 25.216486 23.674291
670 1 1 28.560349 25.035574 23.344202
671 1 1 28.312976 24.766012 23.241524
672 1 1 28.076559 24.730595 22.946138
673 1 1 27.867845 25.046623 22.915074
674 1 1 27.959792 25.280202 22.629791
675 1 1 27.776577 25.612005 22.656973
676 1 1 27.549663 25.844496 22.459849
677 1 1 27.272299 25.848307 22.200128
678 1 1 26.898179 25.823725 22.262012
679 1 1 26.561869 25.673836 22.168050
680 1 1 26.195370 25.739643 22.092234
681 1 1 26.186916 25.957504 21.781003
682 1 1 26.166486 25.859615 21.414396
683 1 1 26.339124 26.042139 21.129297
684 1 1 26.691842 26.130674 21.239529
685 1 1 26.846385 26.190657 21.581462
686 1 1 27.173357 26.383093 21.560056
687 1 1 27.461116 26.136008 21.583374
688 1 1 27.614989 25.889665 21.338347
689 1 1 27.395255 25.823903 21.035375
690 1 1 27.454951 26.064835 20.747645
691 1 1 27.636882 26.229069 20.457251
692 1 1 27.412252 26.324712 20.166058
693 1 1 27.054192 26.243569 20.264080
694 1 1 26.772195 26.481617 20.354693
695 1 1 26.455238 26.517790 20.561162
696 1 1 26.320702 26.808606 20.765432
697 1 1 26.172876 27.025691 21.040062
698 1 1 26.456029 27.139194 21.266648
699 1 1 26.804914 27.279357 21.321729
700 1 1 27.155197 27.247842 21.177825
701 1 1 27.466837 27.146497 20.985444
702 1 1 27.763953 27.268513 21.188506
703 1 1 27.705219 27.232495 21.562207
704 1 1 27.888354 26.970874 21.768158
705 1 1 28.051274 26.653951 21.636183
706 1 1 28.375337 26.638837 21.438308
707 1 1 28.465742 26.997412 21.350840
708 1 1 28.463256 27.377346 21.344219
709 1 1 28.398319 27.493226 21.700246
710 1 1 28.594523 27.589584 22.011082
711 1 1 28.405506 27.793116 22.270404
712 1 1 28.025785 27.802235 22.281725
713 1 1 27.856313 27.462355 22.269034
714 1 1 27.521510 27.317176 22.163063
715 1 1 27.277298 27.200869 22.429958
716 1 1 26.983100 26.999785 22.297999
717 1 1 26.683224 27.134789 22.107609
718 1 1 26.392066 26.905901 22.022537
719 1 1 26.239325 26.565443 21.950713
720 1 1 25.939760 26.491835 22.172619
721 1 1 25.689064 26.375030 22.433211
722 1 1 25.732699 26.227781 22.780794
723 1 1 25.833514 25.877938 22.889636
724 1 1 26.023457 25.549093 22.876142
725 1 1 26.377343 25.421490 22.822454
726 1 1 26.547999 25.384937 23.160005
727 1 1 26.301848 25.393201 23.449385
728 1 1 26.399373 25.695119 23.658513
729 1 1 26.303586 25.785428 24.014981
730 1 1 26.434304 25.727936 24.367128
731 1 1 26.229102 25.915411 24.626252
732 1 1 26.054428 25.692556 24.879678
733 1 1 26.269704 25.423967 25.040664
734 1 1 26.458064 25.133230 25.196845
735 1 1 26.784606 25.091371 25.007060
736 1 1 26.779511 25.122259 24.628352
737 1 1 27.065461 24.975553 24.425597
738 1 1 26.976951 24.676040 24.209130
739 1 1 26.607520 24.655358 24.122566
740 1 1 26.441796 24.453537 23.846517
741 1 1 26.363786 24.084639 23.799306
742 1 1 26.379779 23.809750 24.061184
743 1 1 26.389114 23.438565 23.980344
744 1 1 26.369893 23.262538 23.644123
745 1 1 26.602477 23.398056 23.375908
746 1 1 26.709892 23.520303 23.032516
747 1 1 26.956151 23.301149 22.843497
748 1 1 27.303239 23.278198 22.690516
749 1 1 27.616333 23.492845 22.673224
750 1 1 27.673612 23.623046 23.025597
751 1 1 27.548939 23.915137 23.234259
752 1 1 27.571399 23.799658 23.595590
753 1 1 27.329004 23.537093 23.724836
754 1 1 27.162254 23.278193 23.947468
755 1 1 27.075915 22.919168 23.857766
756 1 1 27.021568 22.647991 24.118360
757 1 1 27.252789 22.349403 24.160568
758 1 1 27.324591 22.064244 23.919884
759 1 1 27.616918 21.821722 23.931203
760 1 1 27.993999 21.867992 23.939499
761 1 1 28.117392 22.078969 23.648530
762 1 1 28.019696 22.030542 23.284510
763 1 1 27.672042 21.931658 23.167213
764 1 1 27.350918 21.854142 23.355017
765 1 1 27.056558 21.691118 23.531581
766 1 1 26.773378 21.439414 23.502346
767 1 1 26.681627 21.071727 23.474275
768 1 1 26.600412 20.735162 23.317660
769 1 1 26.690556 20.376112 23.403433
770 1 1 26.832285 20.127037 23.153885
771 1 1 27.119160 20.152718 22.906006
772 1 1 27.426885 19.929771 22.905802
773 1 1 27.436201 19.604790 22.709077
774 1 1 27.446530 19.263020 22.874866
775 1 1 27.277267 19.301783 23.212872
776 1 1 26.912395 19.401482 23.249319
777 1 1 26.754753 19.583631 23.543208
778 1 1 26.579703 19.675435 23.867753
779 1 1 26.399256 19.583554 24.189307
780 1 1 26.409426 19.243849 24.359298
781 1 1 26.174269 18.945830 24.342403
782 1 1 26.071726 18.702097 24.069494
783 1 1 26.239325 18.418088 23.880684
784 1 1 26.023377 18.134957 23.748006
785 1 1 25.711275 18.134799 23.964782
786 1 1 25.537156 17.797641 23.984945
787 1 1 25.216080 17.603966 24.046595
788 1 1 24.899674 17.518013 23.854503
789 1 1 24.777855 17.188709 23.999828
790 1 1 24.418577 17.252435 24.105932
791 1 1 24.145545 17.201089 23.846669
792 1 1 23.830636 17.103230 24.035497
793 1 1 23.535478 17.320458 23.935029
794 1 1 23.312335 17.597651 23.801721
795 1 1 23.322100 17.716433 23.440894
796 1 1 23.133847 17.792156 23.119605
797 1 1 22.798312 17.961662 23.175137