LAMMPS data file for polymer system

27000 atoms
26940 bonds

1 atom types
1 bond types

0.0 37.837447939934926 xlo xhi
0.0 37.837447939934926 ylo yhi
0.0 37.837447939934926 zlo zhi

Masses

1 5.65487

Atoms

1 1 1 28.435816 32.774917 8.899465
2 1 1 28.625795 33.099605 8.845742
3 1 1 28.536594 33.365314 9.102339
4 1 1 28.608770 33.527135 9.438501
5 1 1 28.650449 33.415215 9.799245
6 1 1 28.339445 33.479508 10.007914
7 1 1 28.067192 33.221364 10.068245
8 1 1 27.754414 33.091885 9.895605
9 1 1 27.632655 32.732661 9.872519
10 1 1 27.862834 32.528061 10.095131
11 1 1 28.200294 32.646762 10.223314
12 1 1 28.569494 32.589508 10.292695
13 1 1 28.790914 32.885153 10.203437
14 1 1 28.954520 33.162193 10.405629
15 1 1 28.886990 33.193893 10.778234
16 1 1 28.783701 33.352191 11.107891
17 1 1 28.625346 33.161801 11.396119
18 1 1 28.519234 32.796963 11.390363
19 1 1 28.163967 32.785967 11.524768
20 1 1 28.093597 32.461029 11.708788
21 1 1 27.806342 32.278622 11.539636
22 1 1 27.482365 32.284172 11.341121
23 1 1 27.300222 32.425392 11.038994
24 1 1 27.255141 32.498135 10.668756
25 1 1 27.081133 32.705098 10.401759
26 1 1 27.034456 33.082109 10.392589
27 1 1 26.965606 33.193188 10.749409
28 1 1 26.933878 33.187510 11.128040
29 1 1 26.633981 32.969071 11.210174
30 1 1 26.316757 32.907032 11.010373
31 1 1 25.969950 33.042045 11.087161
32 1 1 25.642741 32.849182 11.098897
33 1 1 25.558288 32.495094 10.989856
34 1 1 25.648062 32.125860 10.992437
35 1 1 25.590988 31.954746 11.326895
36 1 1 25.530738 31.725816 11.624151
37 1 1 25.594838 31.356533 11.561528
38 1 1 25.952708 31.319234 11.439307
39 1 1 26.308348 31.450714 11.464473
40 1 1 26.594347 31.557988 11.238427
41 1 1 26.861136 31.367342 11.046391
42 1 1 27.135594 31.257518 11.285162
43 1 1 27.508458 31.190434 11.255631
44 1 1 27.866811 31.309664 11.213596
45 1 1 28.118223 31.368799 10.934858
46 1 1 28.310217 31.118744 10.722700
47 1 1 28.153869 30.800152 10.586853
48 1 1 27.990191 30.807342 10.243985
49 1 1 27.619298 30.855895 10.177046
50 1 1 27.560819 30.881408 9.802441
51 1 1 27.242820 30.888014 9.594515
52 1 1 27.051951 31.194586 9.712763
53 1 1 27.223312 31.511727 9.592526
54 1 1 27.240315 31.803857 9.350099
55 1 1 27.543312 31.925697 9.155809
56 1 1 27.838013 31.686043 9.144980
57 1 1 27.848043 31.498868 9.475532
58 1 1 28.177563 31.372723 9.616614
59 1 1 28.330868 31.124148 9.859735
60 1 1 28.590940 30.957989 10.081442
61 1 1 28.851218 31.115949 10.308827
62 1 1 29.219813 31.144649 10.220995
63 1 1 29.507381 30.993283 10.417954
64 1 1 29.782781 30.898442 10.662003
65 1 1 30.060550 30.955421 10.914980
66 1 1 30.406756 31.013333 11.060541
67 1 1 30.763722 30.954386 11.176731
68 1 1 31.105143 30.901364 11.334910
69 1 1 31.049142 30.786880 11.692901
70 1 1 31.308488 30.751998 11.968442
71 1 1 31.584131 30.490730 11.981081
72 1 1 31.940360 30.361913 12.011200
73 1 1 32.171355 30.580532 12.219160
74 1 1 32.063715 30.724316 12.554032
75 1 1 32.047183 31.089852 12.656550
76 1 1 32.125411 31.414934 12.837111
77 1 1 32.269282 31.432542 13.188382
78 1 1 32.556969 31.442062 13.436465
79 1 1 32.898990 31.585257 13.519633
80 1 1 33.085712 31.323879 13.722652
81 1 1 33.457546 31.354822 13.650666
82 1 1 33.818806 31.301109 13.545758
83 1 1 33.913986 31.167375 13.203040
84 1 1 33.827185 30.854882 13.005015
85 1 1 33.741750 30.574543 12.763124
86 1 1 33.650003 30.278546 12.543197
87 1 1 33.484396 30.186469 12.213809
88 1 1 33.246994 30.260913 11.926584
89 1 1 32.938048 30.425660 12.074269
90 1 1 32.888292 30.755180 11.891675
91 1 1 33.024850 31.109459 11.907124
92 1 1 33.335862 31.117289 12.125322
93 1 1 33.632234 31.353623 12.098683
94 1 1 33.922767 31.559740 11.966371
95 1 1 34.119339 31.854982 12.102721
96 1 1 34.443672 31.897302 11.909286
97 1 1 34.647386 31.578886 11.948171
98 1 1 35.027233 31.588101 11.953799
99 1 1 35.146017 31.245550 12.067593
100 1 1 35.274440 31.080451 11.750340
101 1 1 35.276194 31.174138 11.382074
102 1 1 35.516479 31.460304 11.312992
103 1 1 35.435019 31.608933 10.972884
104 1 1 35.366083 31.982453 10.961467
105 1 1 35.473058 32.238397 11.221176
106 1 1 35.335851 32.405769 11.533523
107 1 1 35.178405 32.366710 11.877159
108 1 1 34.935771 32.497754 12.138609
109 1 1 34.576854 32.518953 12.261609
110 1 1 34.304848 32.512718 11.996328
111 1 1 34.366391 32.633179 11.641221
112 1 1 34.118756 32.805301 11.410026
113 1 1 34.055056 32.669722 11.060798
114 1 1 34.240293 32.559884 10.747712
115 1 1 34.215211 32.633868 10.375829
116 1 1 33.887918 32.721911 10.203993
117 1 1 33.854806 33.095044 10.140154
118 1 1 33.731207 33.280198 10.448117
119 1 1 33.501506 33.101039 10.692124
120 1 1 33.239414 32.861316 10.827182
121 1 1 33.019626 32.658710 10.592567
122 1 1 33.176149 32.523062 10.273977
123 1 1 33.134466 32.635038 9.913250
124 1 1 32.995893 32.416550 9.634933
125 1 1 32.917002 32.049602 9.575554
126 1 1 32.680969 31.938592 9.299211
127 1 1 32.351857 32.011021 9.123600
128 1 1 32.070616 32.195386 8.946644
129 1 1 31.792586 32.454410 8.949032
130 1 1 31.469946 32.427792 9.148017
131 1 1 31.109660 32.308761 9.168647
132 1 1 30.821501 32.556257 9.158161
133 1 1 30.523033 32.777733 9.079005
134 1 1 30.216010 32.765680 8.855417
135 1 1 30.161051 33.107949 8.699753
136 1 1 30.445657 33.359314 8.714428
137 1 1 30.712845 33.278444 8.456609
138 1 1 30.547240 33.046692 8.205082
139 1 1 30.644423 32.950683 7.850487
140 1 1 30.491215 32.867636 7.512803
141 1 1 30.220530 33.078794 7.349886
142 1 1 29.991553 33.269513 7.114099
143 1 1 29.623963 33.236815 7.023499
144 1 1 29.258637 33.264017 6.922516
145 1 1 28.996405 33.170484 7.181139
146 1 1 28.633935 33.179529 7.067416
147 1 1 28.312288 33.345186 6.951220
148 1 1 27.950612 33.429386 7.031846
149 1 1 27.848993 33.399049 7.396747
150 1 1 27.753352 33.628621 7.684062
151 1 1 27.577395 33.963998 7.653051
152 1 1 27.285188 34.001081 7.893135
153 1 1 27.236828 33.768681 8.189870
154 1 1 27.337556 33.908964 8.528358
155 1 1 27.130757 33.751727 8.805686
156 1 1 26.924270 33.854217 9.107777
157 1 1 27.171100 33.949658 9.380479
158 1 1 27.335442 34.023627 9.715023
159 1 1 27.604643 34.286951 9.664113
160 1 1 27.834193 34.584136 9.605913
161 1 1 27.926190 34.940145 9.510025
162 1 1 27.598514 35.099674 9.402419
163 1 1 27.292834 35.091354 9.628007
164 1 1 27.371442 35.068222 9.999068
165 1 1 27.723243 34.958788 10.092130
166 1 1 27.885273 34.669025 10.277017
167 1 1 28.085241 34.386485 10.120223
168 1 1 28.193332 34.053857 10.268798
169 1 1 28.227974 33.966070 10.636892
170 1 1 28.448095 34.217159 10.818279
171 1 1 28.490680 34.089086 11.173503
172 1 1 28.643699 34.124237 11.519551
173 1 1 28.794830 33.947746 11.820234
174 1 1 29.164636 33.913818 11.900812
175 1 1 29.535860 33.859312 11.960992
176 1 1 29.746017 33.983649 11.669831
177 1 1 29.732253 34.222087 11.374268
178 1 1 29.751892 34.601516 11.367324
179 1 1 30.088926 34.771704 11.410270
180 1 1 30.064955 35.100117 11.599929
181 1 1 30.029281 35.238018 11.952222
182 1 1 29.875454 35.028154 12.229159
183 1 1 29.695983 35.145988 12.542696
184 1 1 29.702423 34.935647 12.859106
185 1 1 29.690552 34.558792 12.811788
186 1 1 29.796857 34.269010 13.033431
187 1 1 29.960402 34.284802 13.376073
188 1 1 30.073320 33.950554 13.517237
189 1 1 30.449264 33.896402 13.528821
190 1 1 30.721821 33.765148 13.758788
191 1 1 30.988380 33.681415 14.016344
192 1 1 31.362222 33.631123 14.062311
193 1 1 31.722487 33.732286 14.128454
194 1 1 32.096836 33.775868 14.177068
195 1 1 32.307242 33.468029 14.103825
196 1 1 32.573254 33.222360 13.988568
197 1 1 32.552361 33.156911 13.614830
198 1 1 32.773066 33.050332 13.324433
199 1 1 33.149690 33.095666 13.302089
200 1 1 33.245558 33.446395 13.412536
201 1 1 33.285782 33.801988 13.284724
202 1 1 33.436450 34.121169 13.425516
203 1 1 33.344405 34.383289 13.684786
204 1 1 33.406955 34.642021 13.955978
205 1 1 33.412170 35.006097 14.064704
206 1 1 33.665855 35.190045 13.849746
207 1 1 33.971787 35.415442 13.851111
208 1 1 34.224622 35.682660 13.755880
209 1 1 34.565787 35.593123 13.897264
210 1 1 34.885922 35.389755 13.920821
211 1 1 35.097126 35.099980 13.795031
212 1 1 35.061498 34.914445 13.465323
213 1 1 34.787600 34.656928 13.520687
214 1 1 34.960539 34.351403 13.666105
215 1 1 34.912094 34.035525 13.460498
216 1 1 35.251424 33.888268 13.373486
217 1 1 35.447273 33.787030 13.063981
218 1 1 35.417436 33.942210 12.718396
219 1 1 35.517573 34.015080 12.359143
220 1 1 35.523211 34.224876 12.042357
221 1 1 35.722430 34.547599 12.018655
222 1 1 35.901855 34.878809 11.968583
223 1 1 35.941335 35.121123 12.258626
224 1 1 36.057545 35.226218 12.604820
225 1 1 36.274994 34.982461 12.798981
226 1 1 36.204555 34.635448 12.936895
227 1 1 36.395240 34.308151 12.967152
228 1 1 36.761092 34.407027 12.939299
229 1 1 36.943144 34.289662 13.251521
230 1 1 37.270632 34.098256 13.274231
231 1 1 37.608004 34.199767 13.131838
232 1 1 0.137080 34.191625 13.231807
233 1 1 0.210148 34.042688 13.573683
234 1 1 0.428581 33.910290 13.855032
235 1 1 0.754660 33.876056 14.047127
236 1 1 0.786602 33.846108 14.424596
237 1 1 0.639181 33.514644 14.537727
238 1 1 0.772826 33.304317 14.824610
239 1 1 0.962747 33.076205 15.061875
240 1 1 1.094344 32.818119 15.307789
241 1 1 1.259206 32.546688 15.516465
242 1 1 1.412386 32.396129 15.829943
243 1 1 1.397001 32.282088 16.192100
244 1 1 1.173506 32.323048 16.496685
245 1 1 1.291004 32.157562 16.817946
246 1 1 1.474354 31.826077 16.787935
247 1 1 1.847261 31.853824 16.720326
248 1 1 2.191891 31.982501 16.815573
249 1 1 2.403346 31.669983 16.860514
250 1 1 2.633891 31.442045 17.058739
251 1 1 2.930169 31.228731 16.953303
252 1 1 3.130133 31.066931 16.673597
253 1 1 3.262672 30.715060 16.618640
254 1 1 3.642133 30.706201 16.636824
255 1 1 4.002662 30.798486 16.713655
256 1 1 4.191461 30.878587 16.393751
257 1 1 4.565333 30.883968 16.325992
258 1 1 4.726956 30.700046 16.616595
259 1 1 4.995561 30.432363 16.592141
260 1 1 5.020734 30.054441 16.561467
261 1 1 5.311447 29.949473 16.782527
262 1 1 5.482213 30.096272 17.088614
263 1 1 5.765908 30.345534 17.046359
264 1 1 5.776332 30.613254 16.776884
265 1 1 5.581385 30.737697 16.475371
266 1 1 5.505712 31.108399 16.439965
267 1 1 5.165950 31.277826 16.455964
268 1 1 4.951987 31.464248 16.708683
269 1 1 4.696804 31.330308 16.956355
270 1 1 4.635049 31.248829 17.322344
271 1 1 4.677684 30.873133 17.360222
272 1 1 4.462314 30.560846 17.382422
273 1 1 4.636602 30.247688 17.256106
274 1 1 4.849098 30.118388 17.543381
275 1 1 5.108010 29.840357 17.535448
276 1 1 5.357585 29.557212 17.579507
277 1 1 5.358644 29.338891 17.890529
278 1 1 5.345697 29.329301 18.270187
279 1 1 5.091971 29.524460 18.474970
280 1 1 5.138248 29.772540 18.759073
281 1 1 5.390737 30.036471 18.863904
282 1 1 5.227976 30.373613 18.798758
283 1 1 4.865370 30.379826 18.685274
284 1 1 4.553319 30.185762 18.782038
285 1 1 4.487112 29.861309 18.968443
286 1 1 4.390858 29.535676 18.797862
287 1 1 4.080767 29.505492 18.580301
288 1 1 3.767229 29.703302 18.663760
289 1 1 3.552955 29.755765 18.354350
290 1 1 3.319798 29.522410 18.165715
291 1 1 3.364520 29.326060 17.843463
292 1 1 3.729793 29.252761 17.768610
293 1 1 4.069008 29.409032 17.838697
294 1 1 4.298030 29.127398 17.951085
295 1 1 4.209066 28.758163 17.938789
296 1 1 4.104460 28.394022 17.968100
297 1 1 4.114456 28.038583 17.834075
298 1 1 4.035259 27.838166 17.521088
299 1 1 3.816164 27.658648 17.267769
300 1 1 3.446976 27.645185 17.356757
301 1 1 3.200633 27.477206 17.592337
302 1 1 2.939927 27.384910 17.852939
303 1 1 2.615407 27.304493 18.033550
304 1 1 2.290317 27.249390 18.222441
305 1 1 2.097610 27.073662 18.498818
306 1 1 1.983152 26.766301 18.690725
307 1 1 1.640220 26.676238 18.554027
308 1 1 1.366904 26.911651 18.434531
309 1 1 1.366125 27.232180 18.638639
310 1 1 1.517921 27.562662 18.528459
311 1 1 1.236901 27.817050 18.555197
312 1 1 1.036760 28.017295 18.301730
313 1 1 0.941913 28.383165 18.341021
314 1 1 0.867926 28.746235 18.425318
315 1 1 0.646874 29.025926 18.293757
316 1 1 0.767666 29.386097 18.303047
317 1 1 0.723338 29.687770 18.529826
318 1 1 0.767988 29.745710 18.902719
319 1 1 0.552800 30.045216 18.994319
320 1 1 0.277809 30.121522 19.245232
321 1 1 0.058583 30.430678 19.217618
322 1 1 37.810609 30.144981 18.982074
323 1 1 37.730171 30.265099 19.333502
324 1 1 37.658204 30.597601 19.502804
325 1 1 37.535232 30.910773 19.326165
326 1 1 37.399992 31.252416 19.229260
327 1 1 37.310157 31.611659 19.314546
328 1 1 37.006388 31.831344 19.252393
329 1 1 36.755961 32.090730 19.132373
330 1 1 36.572629 32.058316 18.801105
331 1 1 36.239564 32.239715 18.824804
332 1 1 35.970966 32.375234 18.592663
333 1 1 35.992850 32.754603 18.591951
334 1 1 36.000594 33.048814 18.351577
335 1 1 35.997932 33.151217 17.985645
336 1 1 35.705401 32.978056 17.815819
337 1 1 35.685017 32.667001 17.598496
338 1 1 35.364230 32.467800 17.555897
339 1 1 35.249128 32.389774 17.909541
340 1 1 35.127017 32.718902 18.055019
341 1 1 35.106512 32.995402 18.314879
342 1 1 34.826309 33.245596 18.257530
343 1 1 34.458397 33.205450 18.171335
344 1 1 34.149306 33.010862 18.276207
345 1 1 33.894237 33.217413 18.467717
346 1 1 33.723424 33.555721 18.439956
347 1 1 33.810119 33.912209 18.538951
348 1 1 34.101728 34.053779 18.340653
349 1 1 34.475124 34.124080 18.334864
350 1 1 34.723406 34.003327 18.073761
351 1 1 34.665977 34.127840 17.719363
352 1 1 34.397064 34.365150 17.593785
353 1 1 34.339814 34.701710 17.426904
354 1 1 34.331452 35.070624 17.517640
355 1 1 34.197568 35.264300 17.815909
356 1 1 33.969199 35.481008 18.028712
357 1 1 33.861732 35.810741 18.184040
358 1 1 33.853594 36.189250 18.151411
359 1 1 34.078256 36.485821 18.074128
360 1 1 34.163168 36.702521 17.773743
361 1 1 34.238641 36.956354 17.501213
362 1 1 34.308483 36.917806 17.129680
363 1 1 34.590457 36.861178 16.881318
364 1 1 34.650997 37.174692 16.675298
365 1 1 34.601590 37.168761 16.298570
366 1 1 34.896581 37.038090 16.097809
367 1 1 35.157501 37.314344 16.095678
368 1 1 35.215208 37.619260 16.314986
369 1 1 35.410006 0.071822 16.165494
370 1 1 35.786862 0.025641 16.181197
371 1 1 36.065978 0.238032 16.327432
372 1 1 35.801702 37.808269 16.383615
373 1 1 35.939268 37.484353 16.526981
374 1 1 35.835091 37.152740 16.373422
375 1 1 35.806207 36.840040 16.159450
376 1 1 36.038220 36.843601 15.858523
377 1 1 36.411299 36.887196 15.916071
378 1 1 36.540130 37.202138 15.746914
379 1 1 36.800436 37.374606 15.530360
380 1 1 36.805991 37.280262 15.162300
381 1 1 36.649720 36.936533 15.119523
382 1 1 36.848446 36.708493 15.349536
383 1 1 37.084200 36.453387 15.195455
384 1 1 36.949201 36.365724 14.851231
385 1 1 37.052910 36.560161 14.541652
386 1 1 37.312134 36.485265 14.274083
387 1 1 37.414911 36.209880 14.033250
388 1 1 37.600937 36.119103 13.714575
389 1 1 0.104097 36.281950 13.757781
390 1 1 0.461313 36.411431 13.752177
391 1 1 0.839358 36.440866 13.727369
392 1 1 1.147960 36.484540 13.509981
393 1 1 1.492456 36.438114 13.663496
394 1 1 1.588923 36.074755 13.718847
395 1 1 1.369703 35.828641 13.529717
396 1 1 1.375301 35.795217 13.151231
397 1 1 1.516839 35.507645 12.947101
398 1 1 1.545878 35.217411 13.190660
399 1 1 1.700930 34.875468 13.132058
400 1 1 1.917878 34.645856 12.920844
401 1 1 1.870195 34.769680 12.564762
402 1 1 1.676887 34.689361 12.247618
403 1 1 1.745679 34.779893 11.885028
404 1 1 1.413489 34.763607 11.701222
405 1 1 1.087691 34.957452 11.675141
406 1 1 0.992431 35.271339 11.866975
407 1 1 0.650275 35.412041 11.780185
408 1 1 0.355802 35.379421 11.542232
409 1 1 0.156814 35.055689 11.541003
410 1 1 0.005913 34.717453 11.626004
411 1 1 37.766387 34.540551 11.298619
412 1 1 0.146212 34.591686 10.991084
413 1 1 0.320727 34.875097 10.807720
414 1 1 0.610710 35.109644 10.734935
415 1 1 0.971287 35.198146 10.815878
416 1 1 1.277617 35.295658 11.018495
417 1 1 1.604981 35.459929 11.119728
418 1 1 1.649633 35.804451 10.965746
419 1 1 1.483588 36.063127 10.742328
420 1 1 1.331133 36.350303 10.939019
421 1 1 1.454123 36.617873 11.179184
422 1 1 1.655961 36.924638 11.081427
423 1 1 1.741542 37.261314 10.927396
424 1 1 1.624767 37.555570 10.717213
425 1 1 1.486093 0.066073 10.781242
426 1 1 1.674479 0.007741 11.106062
427 1 1 1.626393 0.068812 11.478027
428 1 1 1.686450 37.617636 11.717796
429 1 1 2.011143 37.804681 11.780955
430 1 1 2.188905 0.112661 12.083694
431 1 1 2.383120 0.401965 12.235297
432 1 1 2.713430 0.359458 12.418295
433 1 1 2.759141 0.331210 12.794476
434 1 1 3.123069 0.349278 12.902317
435 1 1 3.252850 0.375999 13.258467
436 1 1 3.258159 0.021265 13.394611
437 1 1 3.092839 0.028011 13.736699
438 1 1 2.998690 37.520582 13.865524
439 1 1 2.679333 37.620481 14.045610
440 1 1 2.609892 0.128899 14.186872
441 1 1 2.597488 0.065275 14.561302
442 1 1 2.806154 0.304006 14.770744
443 1 1 2.877273 0.325451 15.143413
444 1 1 2.828984 37.830927 15.321914
445 1 1 2.748109 0.060950 15.687026
446 1 1 2.396316 0.204169 15.698432
447 1 1 2.480682 37.772560 15.953169
448 1 1 2.110540 37.693193 15.920064
449 1 1 1.773496 37.678663 15.745164
450 1 1 1.413229 37.557835 15.742231
451 1 1 26.068048 6.060787 33.525655
452 1 1 26.341665 5.825583 33.406437
453 1 1 26.672985 5.673266 33.299542
454 1 1 26.984003 5.632327 33.085086
455 1 1 27.079026 5.409316 32.792448
456 1 1 27.430908 5.345966 32.663740
457 1 1 27.624071 5.114805 32.895371
458 1 1 27.735136 4.751874 32.913968
459 1 1 27.727703 4.513310 32.618279
460 1 1 27.572827 4.618268 32.287526
461 1 1 27.429392 4.595269 31.936389
462 1 1 27.219312 4.585907 31.619878
463 1 1 27.000319 4.463900 31.334298
464 1 1 26.757595 4.666432 31.123428
465 1 1 26.613810 4.742220 30.779943
466 1 1 26.712884 4.688273 30.417074
467 1 1 26.631914 4.333376 30.308024
468 1 1 26.675011 3.956797 30.280989
469 1 1 26.452242 3.683716 30.423120
470 1 1 26.492024 3.355555 30.235697
471 1 1 26.395169 3.007776 30.354310
472 1 1 26.288976 2.856404 30.686288
473 1 1 26.212275 3.101934 30.965988
474 1 1 26.319481 3.316928 31.260410
475 1 1 26.203332 3.367185 31.618717
476 1 1 26.005395 3.517134 31.906356
477 1 1 26.174505 3.716375 32.182227
478 1 1 26.423844 3.574363 32.431350
479 1 1 26.569820 3.240057 32.537796
480 1 1 26.938436 3.228518 32.446203
481 1 1 26.959292 3.340195 32.083583
482 1 1 27.077495 3.700732 32.062580
483 1 1 27.397979 3.768125 32.255318
484 1 1 27.598642 3.507834 32.446063
485 1 1 27.903515 3.312250 32.560950
486 1 1 28.134272 3.017696 32.627199
487 1 1 28.427357 3.045842 32.386972
488 1 1 28.667541 3.200286 32.136256
489 1 1 29.038692 3.157102 32.067103
490 1 1 29.149110 2.803188 31.983721
491 1 1 29.162406 2.478141 32.180108
492 1 1 29.137931 2.100757 32.142930
493 1 1 29.069275 1.747460 32.020998
494 1 1 29.281050 1.496059 31.830343
495 1 1 29.317734 1.222271 31.569394
496 1 1 29.392212 0.869569 31.689620
497 1 1 29.173657 0.645469 31.474182
498 1 1 29.270177 0.282454 31.531657
499 1 1 29.140393 37.764003 31.561524
500 1 1 29.330059 37.710369 31.236639
501 1 1 29.208779 37.621561 30.887634
502 1 1 28.895670 37.552019 30.683854
503 1 1 29.058405 0.057378 30.703861
504 1 1 29.171448 0.056143 30.341067
505 1 1 29.286017 0.273265 30.051012
506 1 1 29.531019 0.532082 29.919148
507 1 1 29.775095 0.654659 29.654949
508 1 1 29.689278 0.722380 29.291013
509 1 1 29.918896 0.989871 29.149155
510 1 1 30.270529 1.100606 29.241307
511 1 1 30.623173 0.964901 29.281636
512 1 1 30.703856 0.899645 29.647193
513 1 1 30.611013 0.818291 30.006583
514 1 1 30.482829 1.000821 30.314238
515 1 1 30.363352 1.046577 30.672053
516 1 1 30.231994 0.936141 31.011095
517 1 1 29.861846 1.018726 31.034988
518 1 1 29.594040 0.770891 30.928888
519 1 1 29.667968 0.485460 30.689171
520 1 1 29.815279 0.206969 30.901638
521 1 1 30.036299 0.105914 31.193765
522 1 1 29.882782 37.776566 31.498742
523 1 1 30.041049 37.593408 31.205818
524 1 1 30.271887 37.440059 30.945822
525 1 1 30.358428 37.454149 30.576076
526 1 1 30.072842 37.626965 30.394486
527 1 1 29.712692 37.561402 30.292540
528 1 1 29.502433 37.246041 30.319719
529 1 1 29.524661 36.868336 30.284436
530 1 1 29.864600 36.728437 30.188158
531 1 1 30.054991 36.401081 30.219612
532 1 1 29.967279 36.268736 30.564853
533 1 1 30.002681 36.157425 30.926456
534 1 1 30.070888 35.859919 31.152815
535 1 1 30.363632 35.625903 31.215562
536 1 1 30.293213 35.412013 31.521654
537 1 1 30.163428 35.625321 31.808108
538 1 1 30.089026 35.410993 32.112948
539 1 1 30.110843 35.077869 32.294477
540 1 1 30.126927 34.894060 32.626675
541 1 1 30.450951 34.737835 32.749158
542 1 1 30.425906 34.614694 33.107779
543 1 1 30.655156 34.510372 33.392316
544 1 1 30.732142 34.778426 33.650425
545 1 1 30.598514 34.864522 33.995579
546 1 1 30.254859 34.766298 34.124625
547 1 1 29.994048 34.988975 33.960940
548 1 1 29.970487 35.165099 33.625045
549 1 1 29.705171 35.436918 33.636075
550 1 1 29.632518 35.680433 33.918604
551 1 1 29.492728 36.020293 33.821890
552 1 1 29.479132 36.390330 33.907260
553 1 1 29.254985 36.639896 33.728724
554 1 1 29.122864 36.739357 33.386597
555 1 1 28.958550 37.081995 33.387258
556 1 1 29.034126 37.411927 33.214536
557 1 1 29.015619 37.773543 33.099246
558 1 1 29.087342 0.032560 33.459732
559 1 1 29.275160 0.129899 33.144059
560 1 1 29.601718 37.830867 33.282382
561 1 1 29.838485 0.102492 33.558867
562 1 1 29.940445 37.629506 33.752865
563 1 1 29.858379 37.655390 34.122993
564 1 1 29.528725 37.773500 34.270566
565 1 1 29.555741 0.264601 34.459579
566 1 1 29.368696 0.239641 34.129745
567 1 1 28.995791 0.166550 34.130057
568 1 1 28.979076 37.752843 33.845379
569 1 1 28.714898 37.484298 33.895316
570 1 1 28.862965 37.194586 34.091640
571 1 1 29.221509 37.103451 34.178478
572 1 1 29.364599 37.201426 34.516599
573 1 1 29.470466 37.303457 34.867002
574 1 1 29.408737 37.049703 35.143042
575 1 1 29.475863 36.675717 35.148443
576 1 1 29.389582 36.381383 35.372771
577 1 1 29.330837 36.011565 35.437454
578 1 1 29.205889 35.747351 35.194598
579 1 1 28.960331 35.526601 35.382669
580 1 1 28.984197 35.456376 35.755361
581 1 1 29.132578 35.498909 36.102598
582 1 1 29.434066 35.588832 36.315717
583 1 1 29.497136 35.478935 36.673969
584 1 1 29.312053 35.652843 36.956635
585 1 1 29.224597 36.016674 37.022806
586 1 1 29.386542 36.303966 37.211583
587 1 1 29.495094 36.583992 36.978770
588 1 1 29.460096 36.951595 37.068456
589 1 1 29.770160 37.161358 37.133725
590 1 1 29.875518 37.301691 37.470781
591 1 1 29.801778 37.047386 37.743344
592 1 1 29.528824 37.282885 0.026047
593 1 1 29.267212 37.346188 0.294285
594 1 1 29.172761 37.098258 0.566333
595 1 1 28.943185 36.878957 0.775144
596 1 1 28.904514 36.508221 0.701259
597 1 1 29.210500 36.288248 0.750087
598 1 1 29.492379 36.088310 0.592070
599 1 1 29.595577 35.826877 0.336330
600 1 1 29.951687 35.775370 0.214130
601 1 1 29.950140 35.504726 37.784841
602 1 1 30.296155 35.651277 37.728308
603 1 1 30.650727 35.745830 37.629624
604 1 1 30.971694 35.586183 37.755692
605 1 1 31.099278 35.237834 37.673383
606 1 1 31.467975 35.239169 37.765364
607 1 1 31.598005 35.450497 0.215722
608 1 1 31.914634 35.559954 0.395069
609 1 1 31.986611 35.279773 0.641479
610 1 1 32.325832 35.336104 0.803206
611 1 1 32.412818 35.261386 1.165492
612 1 1 32.357998 35.559066 1.395234
613 1 1 32.254528 35.868876 1.201040
614 1 1 32.188124 36.243009 1.204926
615 1 1 32.194961 36.447258 1.525294
616 1 1 32.249056 36.315070 1.877430
617 1 1 32.600189 36.196244 1.961014
618 1 1 32.816282 36.231180 2.271631
619 1 1 33.170947 36.363250 2.237421
620 1 1 33.433293 36.143626 2.072073
621 1 1 33.681555 35.910905 2.241209
622 1 1 34.036300 35.846457 2.361219
623 1 1 34.376275 35.710985 2.258924
624 1 1 34.340869 35.388637 2.060837
625 1 1 34.228367 35.031320 1.997058
626 1 1 33.860722 35.061379 1.905770
627 1 1 33.760323 34.818523 1.631286
628 1 1 33.660313 34.837063 1.265152
629 1 1 33.552003 34.696195 0.929258
630 1 1 33.383321 34.708690 0.588978
631 1 1 33.040324 34.866453 0.632156
632 1 1 32.977944 34.963819 0.994134
633 1 1 33.082438 35.263408 1.203245
634 1 1 33.093545 35.642497 1.227082
635 1 1 32.918840 35.770311 0.914766
636 1 1 32.874674 35.545939 0.611275
637 1 1 32.743715 35.607869 0.259971
638 1 1 32.623775 35.372157 37.824556
639 1 1 32.547516 35.005186 37.761973
640 1 1 32.437681 34.688284 37.583340
641 1 1 32.272529 34.617485 37.248509
642 1 1 31.934089 34.728090 37.115750
643 1 1 31.800286 34.981836 36.866532
644 1 1 31.615221 34.946617 36.536516
645 1 1 31.243956 34.987176 36.466394
646 1 1 31.138516 35.351928 36.450966
647 1 1 30.793632 35.486137 36.537241
648 1 1 30.593357 35.220513 36.720907
649 1 1 30.700056 35.170613 37.082190
650 1 1 30.611806 34.893113 37.326333
651 1 1 30.397369 34.595829 37.426527
652 1 1 30.360314 34.225337 37.350611
653 1 1 30.522327 33.991756 37.602784
654 1 1 30.555239 34.218578 0.068434
655 1 1 30.878334 34.137120 0.251120
656 1 1 31.087805 33.934655 0.495108
657 1 1 31.252969 33.611794 0.608603
658 1 1 31.134340 33.317002 0.400217
659 1 1 30.964761 33.065306 0.628891
660 1 1 31.121728 32.957438 0.957716
661 1 1 30.956084 32.776048 1.247647
662 1 1 31.171877 32.496384 1.387723
663 1 1 31.437820 32.301190 1.576333
664 1 1 31.565741 32.482785 1.884650
665 1 1 31.446929 32.298071 2.194754
666 1 1 31.403645 32.437482 2.545597
667 1 1 31.044960 32.375181 2.654518
668 1 1 30.851935 32.102962 2.836282
669 1 1 30.964357 31.772971 2.987502
670 1 1 30.647098 31.606874 3.114617
671 1 1 30.494767 31.278066 3.000247
672 1 1 30.203752 31.210584 2.765394
673 1 1 29.894667 31.406173 2.662380
674 1 1 29.530192 31.368147 2.762939
675 1 1 29.210305 31.506102 2.611149
676 1 1 29.107541 31.690428 2.295136
677 1 1 28.780102 31.872361 2.231228
678 1 1 28.599766 32.185602 2.348524
679 1 1 28.608290 32.502240 2.138600
680 1 1 28.424523 32.580289 1.815277
681 1 1 28.336277 32.905371 1.639394
682 1 1 28.163203 33.242941 1.661571
683 1 1 28.174718 33.557760 1.449071
684 1 1 28.132149 33.899234 1.610264
685 1 1 28.335576 34.126263 1.837146
686 1 1 28.513549 33.913163 2.096594
687 1 1 28.487321 34.058792 2.446600
688 1 1 28.730044 33.954244 2.719649
689 1 1 28.743287 33.584482 2.806256
690 1 1 29.057959 33.468991 2.985262
691 1 1 29.360168 33.350518 3.182832
692 1 1 29.632624 33.091057 3.236196
693 1 1 29.496644 32.800460 3.439820
694 1 1 29.119234 32.763929 3.464857
695 1 1 28.906801 32.561705 3.706472
696 1 1 28.649733 32.364189 3.508221
697 1 1 28.312603 32.463217 3.652917
698 1 1 28.174389 32.760226 3.845485
699 1 1 28.001376 32.872654 4.164587
700 1 1 27.885147 33.234442 4.164235
701 1 1 27.659283 33.520741 4.057378
702 1 1 27.329062 33.659072 3.930026
703 1 1 27.190123 33.429366 3.661082
704 1 1 26.869070 33.226086 3.659585
705 1 1 26.836788 32.849084 3.624553
706 1 1 26.832155 32.579378 3.356902
707 1 1 26.537096 32.375858 3.230728
708 1 1 26.257753 32.616549 3.138882
709 1 1 26.103376 32.898111 2.935681
710 1 1 25.774611 32.797769 2.773678
711 1 1 25.589312 32.783590 2.442222
712 1 1 25.488226 32.428374 2.352759
713 1 1 25.124268 32.358516 2.268769
714 1 1 24.771999 32.255504 2.170306
715 1 1 24.669133 32.002109 2.434143
716 1 1 24.701026 31.623461 2.436987
717 1 1 24.719410 31.244852 2.410202
718 1 1 24.500632 30.936973 2.452001
719 1 1 24.263371 30.861953 2.164809
720 1 1 23.927515 30.685942 2.189722
721 1 1 23.835309 30.400082 1.956951
722 1 1 24.054367 30.235387 1.693723
723 1 1 24.280522 30.466370 1.493971
724 1 1 24.590637 30.552545 1.695966
725 1 1 24.695282 30.368486 2.011517
726 1 1 24.936033 30.442203 2.296130
727 1 1 25.012443 30.276281 2.629344
728 1 1 25.049647 29.904183 2.561825
729 1 1 24.817302 29.750428 2.303416
730 1 1 24.971380 29.465880 2.104186
731 1 1 24.959039 29.479404 1.724627
732 1 1 24.680583 29.367160 1.491682
733 1 1 24.327036 29.378708 1.352863
734 1 1 24.167999 29.052529 1.240102
735 1 1 24.212719 28.749134 1.015710
736 1 1 24.024767 28.453849 0.867790
737 1 1 24.077594 28.452008 0.491485
738 1 1 24.376489 28.382970 0.267218
739 1 1 24.545291 28.158358 0.011375
740 1 1 24.706193 27.869254 37.661929
741 1 1 24.944751 28.116280 37.824620
742 1 1 25.052050 27.824645 0.205886
743 1 1 24.856051 27.500449 0.235580
744 1 1 24.803431 27.125612 0.269170
745 1 1 24.834798 26.746934 0.273545
746 1 1 25.060216 26.808842 37.811403
747 1 1 25.083208 26.793564 37.432407
748 1 1 24.910392 26.669032 37.117723
749 1 1 24.538910 26.731586 37.167603
750 1 1 24.333346 26.696424 36.849944
751 1 1 24.359212 26.971178 36.588714
752 1 1 24.564942 27.165227 36.334903
753 1 1 24.683161 27.481352 36.160290
754 1 1 24.482120 27.735759 35.962150
755 1 1 24.385807 28.078807 36.094218
756 1 1 24.516420 28.435529 36.103699
757 1 1 24.300225 28.747962 36.096977
758 1 1 24.087469 28.769721 35.782873
759 1 1 24.315776 28.745296 35.480088
760 1 1 24.571926 28.466435 35.448097
761 1 1 24.872203 28.293769 35.291826
762 1 1 25.161919 28.353601 35.053321
763 1 1 25.135834 28.184483 34.714029
764 1 1 24.783256 28.042940 34.706643
765 1 1 24.765900 27.678922 34.598988
766 1 1 24.993698 27.377289 34.559927
767 1 1 24.971609 27.014509 34.670845
768 1 1 25.146152 26.682311 34.611024
769 1 1 25.289168 26.456638 34.881243
770 1 1 25.274968 26.378861 35.252927
771 1 1 25.020986 26.494100 35.511022
772 1 1 24.974537 26.390757 35.873738
773 1 1 25.202924 26.360829 36.175969
774 1 1 25.555100 26.218134 36.172690
775 1 1 25.640445 25.880021 36.021709
776 1 1 25.919400 25.716003 35.822505
777 1 1 26.275528 25.740515 35.692228
778 1 1 26.521434 25.471427 35.799569
779 1 1 26.675415 25.504902 36.145357
780 1 1 26.847611 25.789331 36.329337
781 1 1 26.926271 26.152971 36.406659
782 1 1 26.964350 26.201593 36.781607
783 1 1 26.876211 26.330257 37.128128
784 1 1 27.141345 26.333418 37.400330
785 1 1 27.251087 26.193923 37.736332
786 1 1 27.598719 26.040498 37.739918
787 1 1 27.375169 26.018586 0.208975
788 1 1 27.229352 25.710344 0.376678
789 1 1 26.884259 25.804711 0.504762
790 1 1 26.711468 25.911957 0.825763
791 1 1 26.538767 26.079115 1.120097
792 1 1 26.387322 26.426606 1.146820
793 1 1 26.014637 26.479612 1.094894
794 1 1 25.656441 26.433495 1.213084
795 1 1 25.378505 26.211256 1.346356
796 1 1 25.491824 26.023972 1.656973
797 1 1 25.572526 25.765354 1.923439
798 1 1 25.777003 25.458833 1.830518