LAMMPS data file for polymer system

27000 atoms
26940 bonds

1 atom types
1 bond types

0.0 37.837447939934926 xlo xhi
0.0 37.837447939934926 ylo yhi
0.0 37.837447939934926 zlo zhi

Masses

1 5.65487

Atoms

1 1 1 22.750113 34.023415 10.227275
2 1 1 23.126361 33.973895 10.246914
3 1 1 23.378862 33.795214 10.467632
4 1 1 23.395706 33.872199 10.839371
5 1 1 23.260609 34.214816 10.932977
6 1 1 23.143629 34.253158 11.292484
7 1 1 23.194379 34.219610 11.667583
8 1 1 23.071100 34.111415 12.010359
9 1 1 22.788224 34.105049 12.264014
10 1 1 22.769140 34.059004 12.640731
11 1 1 22.812363 34.218540 12.982900
12 1 1 22.857095 33.927147 13.222669
13 1 1 22.800095 33.598141 13.041269
14 1 1 23.064924 33.358503 13.171034
15 1 1 23.240349 33.054850 13.317393
16 1 1 23.257462 32.788253 13.587640
17 1 1 23.036945 32.671929 13.874417
18 1 1 23.132756 32.452487 14.169486
19 1 1 22.859859 32.458623 14.433852
20 1 1 22.641388 32.149175 14.464065
21 1 1 22.446887 32.033071 14.769170
22 1 1 22.698367 31.838961 14.977686
23 1 1 22.791731 31.779911 15.341274
24 1 1 22.845130 31.666843 15.700112
25 1 1 22.863596 31.516372 16.048562
26 1 1 22.776754 31.630790 16.400367
27 1 1 23.086153 31.799554 16.542462
28 1 1 23.450750 31.900684 16.507226
29 1 1 23.782847 32.055582 16.406636
30 1 1 23.823817 32.184855 16.051657
31 1 1 23.836768 32.564619 16.048218
32 1 1 24.144027 32.668067 16.246436
33 1 1 24.138730 33.047833 16.258667
34 1 1 24.296265 33.174987 15.937086
35 1 1 24.190928 33.344759 15.613850
36 1 1 24.070116 33.608559 15.368464
37 1 1 24.212987 33.775756 15.058571
38 1 1 24.320947 34.137058 15.011611
39 1 1 24.305735 34.502925 15.113149
40 1 1 24.341280 34.602971 15.478015
41 1 1 24.434126 34.510073 15.834596
42 1 1 24.590989 34.655264 16.148783
43 1 1 24.569911 34.810468 16.495002
44 1 1 24.237946 34.898761 16.657493
45 1 1 23.950358 35.007715 16.434285
46 1 1 23.703661 35.221706 16.628576
47 1 1 23.490795 35.526023 16.548084
48 1 1 23.333232 35.679102 16.858150
49 1 1 23.170505 35.719667 17.199140
50 1 1 22.841886 35.821130 17.360740
51 1 1 22.495628 35.786727 17.208025
52 1 1 22.118236 35.821097 17.236200
53 1 1 21.908375 35.513522 17.312069
54 1 1 21.901999 35.250376 17.038000
55 1 1 22.189941 35.002553 17.029438
56 1 1 22.536109 35.036366 16.876387
57 1 1 22.910294 34.980773 16.912375
58 1 1 22.976067 34.637157 16.764044
59 1 1 23.047574 34.472654 16.429044
60 1 1 22.859819 34.314709 16.138869
61 1 1 23.045078 34.034834 15.960686
62 1 1 23.391316 33.916343 16.063055
63 1 1 23.732576 33.767073 15.987821
64 1 1 24.105259 33.840830 15.979600
65 1 1 24.467630 33.819522 15.867204
66 1 1 24.825234 33.712370 15.796227
67 1 1 25.118648 33.868348 15.980561
68 1 1 25.235532 33.969530 16.327692
69 1 1 25.448742 34.025919 16.637147
70 1 1 25.417024 34.095549 17.009364
71 1 1 25.376121 33.976051 17.367759
72 1 1 25.264783 33.707940 17.612954
73 1 1 25.151856 33.641098 17.969577
74 1 1 24.772974 33.670215 17.968892
75 1 1 24.492262 33.414133 17.964117
76 1 1 24.209345 33.532553 18.188470
77 1 1 23.829415 33.539702 18.190063
78 1 1 23.615811 33.299227 18.392412
79 1 1 23.638630 33.129797 18.731783
80 1 1 23.522696 32.784977 18.841595
81 1 1 23.487884 32.456614 18.653539
82 1 1 23.315366 32.272725 18.369246
83 1 1 23.382988 31.960523 18.163436
84 1 1 23.222754 31.758321 17.884439
85 1 1 23.041690 31.434334 17.802901
86 1 1 22.662146 31.446704 17.788986
87 1 1 22.531782 31.484295 18.143940
88 1 1 22.464354 31.414059 18.511255
89 1 1 22.470574 31.257058 18.857249
90 1 1 22.169424 31.362517 19.063616
91 1 1 21.813916 31.229011 19.077387
92 1 1 21.546329 31.042853 19.272689
93 1 1 21.592655 30.863679 19.604579
94 1 1 21.920255 30.671160 19.608468
95 1 1 22.069198 30.468546 19.323575
96 1 1 22.350917 30.512214 19.072323
97 1 1 22.729539 30.487747 19.093459
98 1 1 22.951923 30.477684 18.785492
99 1 1 23.300206 30.430551 18.641000
100 1 1 23.497776 30.123147 18.745254
101 1 1 23.365475 29.794508 18.607802
102 1 1 23.123298 29.864967 18.323573
103 1 1 22.868097 29.809718 18.047493
104 1 1 22.998339 29.595577 17.761870
105 1 1 22.945453 29.220497 17.792164
106 1 1 22.930379 28.866586 17.929714
107 1 1 22.849081 28.509448 18.030921
108 1 1 23.119168 28.242180 18.035475
109 1 1 23.357375 27.946892 18.056988
110 1 1 23.411233 27.606497 17.896893
111 1 1 23.466890 27.543067 17.526382
112 1 1 23.178752 27.635955 17.296712
113 1 1 22.802443 27.673656 17.259702
114 1 1 22.525850 27.428559 17.348153
115 1 1 22.254597 27.383612 17.085853
116 1 1 22.246082 27.038800 16.926378
117 1 1 22.509734 26.906661 16.686739
118 1 1 22.711709 26.711506 16.430769
119 1 1 23.000999 26.803172 16.202058
120 1 1 23.002540 26.569991 15.902018
121 1 1 22.959309 26.198010 15.837510
122 1 1 22.731823 25.899204 15.895521
123 1 1 22.528009 25.585587 15.962636
124 1 1 22.574686 25.372483 15.651497
125 1 1 22.378533 25.114594 15.452959
126 1 1 22.440823 24.806869 15.238891
127 1 1 22.239194 24.562672 15.028858
128 1 1 22.263804 24.366687 14.704228
129 1 1 22.155002 24.093938 14.463043
130 1 1 21.833896 23.992679 14.286868
131 1 1 21.511708 23.868307 14.128356
132 1 1 21.324285 24.126074 13.921405
133 1 1 21.298448 24.493547 13.828152
134 1 1 21.161049 24.640785 13.505906
135 1 1 21.443422 24.760627 13.281622
136 1 1 21.507525 25.134880 13.266605
137 1 1 21.467999 25.454499 13.468299
138 1 1 21.513782 25.467737 13.845299
139 1 1 21.612204 25.628098 14.175447
140 1 1 21.877478 25.468258 14.395630
141 1 1 22.056348 25.227110 14.628554
142 1 1 21.897902 25.049667 14.924880
143 1 1 21.536465 24.943733 14.874466
144 1 1 21.198999 24.908068 15.045478
145 1 1 20.848612 24.861077 14.906119
146 1 1 20.735835 25.151248 14.688215
147 1 1 20.826486 25.502225 14.802222
148 1 1 20.894207 25.711012 15.112418
149 1 1 20.946644 25.642303 15.482458
150 1 1 20.907946 25.884856 15.772407
151 1 1 20.983810 26.003795 16.125250
152 1 1 20.852243 26.360158 16.135018
153 1 1 20.674183 26.695083 16.157811
154 1 1 20.771277 26.954244 16.418211
155 1 1 20.811925 27.319186 16.516010
156 1 1 20.850664 27.638297 16.313359
157 1 1 20.805235 27.870114 16.015707
158 1 1 20.742394 27.964955 15.653138
159 1 1 21.071271 28.075422 15.498099
160 1 1 21.039411 28.450490 15.446056
161 1 1 21.325518 28.608480 15.252195
162 1 1 21.426037 28.830391 14.960559
163 1 1 21.600399 28.617750 14.698296
164 1 1 21.733688 28.713955 14.355691
165 1 1 21.722041 29.088134 14.290464
166 1 1 21.535389 29.192355 13.976301
167 1 1 21.223183 29.408868 13.983323
168 1 1 21.058312 29.718544 13.837313
169 1 1 20.984999 30.076382 13.732542
170 1 1 21.308285 30.274933 13.754064
171 1 1 21.562962 30.553498 13.710001
172 1 1 21.709773 30.893932 13.626628
173 1 1 21.800541 31.262731 13.638813
174 1 1 21.552095 31.513986 13.778621
175 1 1 21.184562 31.424138 13.813927
176 1 1 20.935146 31.191873 13.981988
177 1 1 20.683346 30.937574 14.109773
178 1 1 20.414459 30.810443 14.346284
179 1 1 20.101647 30.697025 14.529819
180 1 1 19.813347 30.943317 14.554782
181 1 1 19.703318 31.275532 14.406704
182 1 1 19.459708 31.282341 14.115143
183 1 1 19.121247 31.419843 14.010561
184 1 1 18.750029 31.397576 13.932447
185 1 1 18.512959 31.265904 13.666251
186 1 1 18.214949 31.102315 13.836040
187 1 1 18.000358 31.208583 14.131095
188 1 1 18.091231 30.985602 14.425071
189 1 1 18.271190 30.657995 14.493546
190 1 1 18.283572 30.470113 14.163475
191 1 1 18.137908 30.121266 14.202042
192 1 1 18.119369 29.815021 13.977831
193 1 1 18.329536 29.532270 14.120243
194 1 1 18.675476 29.526393 13.963108
195 1 1 18.812007 29.444825 13.617991
196 1 1 18.532280 29.497392 13.366218
197 1 1 18.291441 29.787039 13.316214
198 1 1 18.412415 30.144760 13.273771
199 1 1 18.364435 30.408030 13.003981
200 1 1 18.205853 30.272833 12.686218
201 1 1 18.343990 30.064789 12.399799
202 1 1 18.098568 29.845899 12.209391
203 1 1 17.741329 29.956064 12.141244
204 1 1 17.672266 30.327945 12.177781
205 1 1 17.494886 30.568796 12.412147
206 1 1 17.227971 30.806285 12.282706
207 1 1 16.989302 31.095290 12.345260
208 1 1 16.620881 31.068492 12.256109
209 1 1 16.289597 31.046176 12.440914
210 1 1 15.940002 31.055008 12.589592
211 1 1 15.568297 31.058730 12.668471
212 1 1 15.344024 30.757621 12.609865
213 1 1 15.028680 30.633516 12.781785
214 1 1 14.858211 30.306004 12.871653
215 1 1 14.889186 30.085967 12.563394
216 1 1 15.171237 30.187680 12.329938
217 1 1 15.076498 30.188666 11.961938
218 1 1 14.723570 30.106412 11.847587
219 1 1 14.497864 29.964741 11.576688
220 1 1 14.232867 30.222329 11.488228
221 1 1 14.340488 30.571645 11.592134
222 1 1 14.604306 30.818159 11.473683
223 1 1 14.856327 31.026941 11.666803
224 1 1 15.049164 31.300327 11.847008
225 1 1 15.321762 31.481218 11.653697
226 1 1 15.366229 31.847061 11.561062
227 1 1 15.278278 31.969465 11.212233
228 1 1 15.008512 32.115229 10.987779
229 1 1 14.723811 32.362597 10.941368
230 1 1 14.654694 32.715860 11.063140
231 1 1 14.590630 32.706933 11.437595
232 1 1 14.568186 32.972470 11.708494
233 1 1 14.879031 33.164718 11.812493
234 1 1 14.859329 33.528587 11.920248
235 1 1 15.176865 33.629415 12.103018
236 1 1 15.176980 33.768529 12.456638
237 1 1 14.853902 33.816136 12.650942
238 1 1 14.559389 33.633986 12.494472
239 1 1 14.372440 33.480448 12.787518
240 1 1 14.178604 33.550586 13.106749
241 1 1 13.985003 33.870325 13.038294
242 1 1 13.940643 33.909535 12.662934
243 1 1 13.893842 33.859305 12.289188
244 1 1 13.918844 33.891642 11.911393
245 1 1 14.147959 33.951772 11.614255
246 1 1 14.308902 33.615597 11.540202
247 1 1 14.021959 33.367377 11.518971
248 1 1 13.847028 33.268688 11.196389
249 1 1 14.108024 33.077286 10.997275
250 1 1 13.914835 32.828349 10.784887
251 1 1 13.676049 32.627732 10.567782
252 1 1 13.365854 32.551815 10.773732
253 1 1 13.353422 32.194679 10.902956
254 1 1 13.315869 32.075570 11.261847
255 1 1 13.154051 32.167441 11.593170
256 1 1 13.079645 32.438475 11.848912
257 1 1 13.410009 32.585762 11.965384
258 1 1 13.713034 32.602025 11.736667
259 1 1 13.867124 32.260207 11.674890
260 1 1 14.209203 32.191452 11.524375
261 1 1 14.526179 32.070175 11.695308
262 1 1 14.876532 32.217320 11.696292
263 1 1 15.015211 32.529744 11.862301
264 1 1 15.371867 32.624914 11.772080
265 1 1 15.578388 32.663304 11.455418
266 1 1 15.778041 32.437108 11.224390
267 1 1 15.951799 32.112901 11.319774
268 1 1 15.988750 31.747074 11.223830
269 1 1 16.328482 31.621561 11.338845
270 1 1 16.388817 31.699789 11.705778
271 1 1 16.754777 31.672960 11.804538
272 1 1 17.116023 31.636725 11.916736
273 1 1 17.326559 31.434753 11.673258
274 1 1 17.252321 31.386695 11.303691
275 1 1 17.298104 31.627969 11.013708
276 1 1 17.357165 31.962649 10.843705
277 1 1 17.561846 32.245316 10.693353
278 1 1 17.695480 32.330803 10.348051
279 1 1 18.070758 32.370270 10.392870
280 1 1 18.286378 32.491546 10.681314
281 1 1 18.180956 32.804953 10.868564
282 1 1 18.352053 33.140267 10.816699
283 1 1 18.305916 33.374587 10.521122
284 1 1 18.141258 33.315496 10.183785
285 1 1 17.906046 33.166005 9.925468
286 1 1 18.031934 33.067705 9.580664
287 1 1 18.168896 33.289488 9.304162
288 1 1 18.546240 33.331452 9.319989
289 1 1 18.907582 33.444923 9.289071
290 1 1 19.272797 33.502644 9.201400
291 1 1 19.347006 33.658757 8.862989
292 1 1 19.638751 33.598341 8.627120
293 1 1 19.638390 33.711937 8.264496
294 1 1 19.838298 34.031816 8.218517
295 1 1 19.915357 34.160241 8.567757
296 1 1 20.284812 34.248834 8.560386
297 1 1 20.389329 34.579265 8.404530
298 1 1 20.351103 34.944695 8.307576
299 1 1 20.332718 35.232215 8.555354
300 1 1 20.028487 35.368546 8.737719
301 1 1 19.893647 35.453867 9.082594
302 1 1 19.567332 35.404545 9.270971
303 1 1 19.627383 35.152158 9.548630
304 1 1 19.351676 35.084525 9.801238
305 1 1 19.204809 34.735964 9.837789
306 1 1 19.319470 34.444607 10.053111
307 1 1 19.515406 34.235130 10.302367
308 1 1 19.656021 33.953163 10.514787
309 1 1 19.921097 34.108520 10.738391
310 1 1 20.295146 34.043614 10.754971
311 1 1 20.537030 33.985029 11.042129
312 1 1 20.724950 34.230385 11.263232
313 1 1 20.956468 34.517174 11.170759
314 1 1 20.752588 34.746288 10.946394
315 1 1 20.376082 34.699729 10.924588
316 1 1 20.101327 34.778832 10.674284
317 1 1 19.835560 34.851875 10.412687
318 1 1 19.852056 35.138176 10.163369
319 1 1 20.015263 35.426431 9.977163
320 1 1 20.010044 35.771718 9.818576
321 1 1 20.249484 36.012999 9.988435
322 1 1 20.503020 36.121311 9.726924
323 1 1 20.743910 36.033623 9.446420
324 1 1 20.745591 35.960962 9.073435
325 1 1 20.729249 35.848771 8.710742
326 1 1 20.958552 35.702627 8.445295
327 1 1 20.975323 35.654341 8.068748
328 1 1 20.613333 35.666907 7.953832
329 1 1 20.430085 35.768879 7.636938
330 1 1 20.397023 35.683003 7.268248
331 1 1 20.295558 35.538499 6.931761
332 1 1 20.100037 35.768549 6.701005
333 1 1 19.749906 35.913861 6.674691
334 1 1 19.512853 35.621854 6.620488
335 1 1 19.417713 35.384194 6.901320
336 1 1 19.137725 35.156478 6.782359
337 1 1 18.971409 35.108062 6.444135
338 1 1 19.223608 35.187911 6.171335
339 1 1 19.330546 35.232119 5.809382
340 1 1 19.621065 35.190594 5.567981
341 1 1 19.853116 35.420046 5.373291
342 1 1 20.143325 35.230287 5.217823
343 1 1 20.120342 35.309605 4.846905
344 1 1 20.291175 35.483697 4.555515
345 1 1 20.347140 35.333360 4.211035
346 1 1 20.254556 35.314909 3.842948
347 1 1 20.535276 35.302055 3.587153
348 1 1 20.792522 35.264073 3.310058
349 1 1 21.136217 35.257357 3.148106
350 1 1 21.388249 35.519858 3.257529
351 1 1 21.586201 35.804350 3.101711
352 1 1 21.770648 35.850246 2.772663
353 1 1 21.960254 35.716656 2.471659
354 1 1 21.819769 35.434280 2.259698
355 1 1 21.592361 35.143725 2.350600
356 1 1 21.325304 34.888222 2.262291
357 1 1 21.167845 34.792216 2.594540
358 1 1 20.885787 34.666541 2.816009
359 1 1 20.805579 34.297765 2.860408
360 1 1 20.823286 34.112404 3.191660
361 1 1 20.612863 33.800738 3.246307
362 1 1 20.260474 33.891037 3.136453
363 1 1 19.906065 33.753947 3.135672
364 1 1 19.679340 33.957536 3.362712
365 1 1 19.518153 33.744990 3.633346
366 1 1 19.180600 33.880049 3.743878
367 1 1 18.850357 33.721698 3.642564
368 1 1 18.661540 33.393740 3.608037
369 1 1 18.490355 33.154596 3.367402
370 1 1 18.486116 33.312730 3.021894
371 1 1 18.722504 33.607558 2.981925
372 1 1 19.085929 33.695534 3.049616
373 1 1 19.308053 33.728919 2.743109
374 1 1 19.539558 33.852669 2.468352
375 1 1 19.644294 34.217062 2.493815
376 1 1 19.796407 34.540583 2.622640
377 1 1 19.890776 34.877201 2.771577
378 1 1 19.912805 35.044012 3.112295
379 1 1 20.012634 34.816798 3.400058
380 1 1 19.834128 34.569526 3.626757
381 1 1 19.496655 34.657789 3.777494
382 1 1 19.354526 34.710769 4.125909
383 1 1 19.316603 35.074380 4.229585
384 1 1 19.476571 35.378502 4.067351
385 1 1 19.377914 35.459840 3.709509
386 1 1 19.096474 35.424926 3.456582
387 1 1 18.727667 35.360535 3.521661
388 1 1 18.410799 35.302971 3.319965
389 1 1 18.346790 35.005630 3.092168
390 1 1 18.490240 34.685305 3.237817
391 1 1 18.818622 34.669335 3.428369
392 1 1 19.104276 34.548393 3.208881
393 1 1 19.057499 34.394205 2.864733
394 1 1 18.962110 34.410302 2.497253
395 1 1 18.940938 34.203474 2.179174
396 1 1 18.971497 33.831125 2.248618
397 1 1 18.913006 33.632801 1.929798
398 1 1 18.890398 33.544626 1.560861
399 1 1 18.954918 33.339493 1.247560
400 1 1 19.141317 33.178598 0.958133
401 1 1 19.361512 33.035899 0.683267
402 1 1 19.489766 33.023328 0.325786
403 1 1 19.381616 32.990732 37.800410
404 1 1 19.674487 32.755160 37.744445
405 1 1 20.026156 32.894732 37.779782
406 1 1 20.172631 33.237126 37.704210
407 1 1 20.237302 33.452397 37.397818
408 1 1 20.513354 33.708328 37.449725
409 1 1 20.509265 33.907943 37.773047
410 1 1 20.299436 33.741321 0.205059
411 1 1 20.182145 33.858340 0.547038
412 1 1 19.804327 33.893487 0.567488
413 1 1 19.601129 34.029536 0.858351
414 1 1 19.645304 34.406074 0.884193
415 1 1 19.882867 34.607078 0.666108
416 1 1 19.812966 34.950187 0.518493
417 1 1 20.011522 35.273758 0.535152
418 1 1 20.271535 35.527988 0.424879
419 1 1 20.529812 35.806004 0.404882
420 1 1 20.588191 35.944271 0.753987
421 1 1 20.934962 35.950771 0.909253
422 1 1 21.150012 35.780023 1.171928
423 1 1 21.331446 35.545172 1.409262
424 1 1 21.171207 35.270479 1.617270
425 1 1 20.887522 35.181047 1.853754
426 1 1 20.683991 35.224115 2.171748
427 1 1 20.360763 35.149830 2.357236
428 1 1 20.160808 34.899363 2.153070
429 1 1 19.988851 34.968272 1.821283
430 1 1 19.999596 35.327703 1.698428
431 1 1 20.003261 35.451455 1.339162
432 1 1 20.005894 35.681965 1.037071
433 1 1 19.778927 35.976976 1.113585
434 1 1 19.623548 36.044137 1.453801
435 1 1 19.587947 36.253260 1.769079
436 1 1 19.806408 36.165715 2.067426
437 1 1 19.922229 36.028180 2.402194
438 1 1 20.086884 35.767510 2.624320
439 1 1 20.215272 35.573804 2.924977
440 1 1 20.055125 35.610153 3.267660
441 1 1 19.790928 35.838103 3.418124
442 1 1 19.714372 36.042889 3.728931
443 1 1 19.780556 36.416763 3.713511
444 1 1 19.658861 36.610362 3.410015
445 1 1 19.700859 36.397975 3.097720
446 1 1 19.591090 36.499644 2.748415
447 1 1 19.430900 36.582028 2.413822
448 1 1 19.176737 36.685359 2.150908
449 1 1 18.874281 36.455742 2.164911
450 1 1 18.779210 36.341407 2.514610
451 1 1 36.548578 19.069336 15.640407
452 1 1 36.767340 19.352970 15.767275
453 1 1 37.084864 19.421402 15.570055
454 1 1 37.300879 19.137241 15.439710
455 1 1 37.529095 18.879225 15.600163
456 1 1 37.507366 18.899092 15.979021
457 1 1 37.371790 19.140705 16.239101
458 1 1 37.533332 19.385254 16.480969
459 1 1 0.013471 19.301043 16.290058
460 1 1 0.106296 18.941678 16.208572
461 1 1 0.478628 18.888540 16.154297
462 1 1 0.632358 19.230141 16.090458
463 1 1 0.642861 19.386215 15.744148
464 1 1 0.351569 19.455684 15.510218
465 1 1 0.200837 19.789902 15.610108
466 1 1 37.668257 19.718290 15.658592
467 1 1 37.564544 19.945857 15.944698
468 1 1 37.346374 20.229398 15.816611
469 1 1 37.293196 20.306266 15.448286
470 1 1 37.586292 20.447093 15.251658
471 1 1 0.064670 20.313139 15.088226
472 1 1 0.424724 20.259672 15.197326
473 1 1 0.737470 20.384130 15.373679
474 1 1 0.810103 20.494081 15.730099
475 1 1 1.159663 20.642860 15.721559
476 1 1 1.354038 20.862353 15.479813
477 1 1 1.699561 20.996261 15.395653
478 1 1 1.994980 20.823937 15.561277
479 1 1 2.021024 20.468302 15.429957
480 1 1 2.166877 20.469269 15.079064
481 1 1 2.114885 20.563916 14.714731
482 1 1 1.810708 20.597188 14.489410
483 1 1 1.762636 20.838187 14.199568
484 1 1 1.392439 20.923938 14.200552
485 1 1 1.185962 21.179221 14.009247
486 1 1 1.081506 21.435086 13.748437
487 1 1 0.719923 21.487630 13.644047
488 1 1 0.340225 21.493094 13.658177
489 1 1 0.060882 21.239037 13.700865
490 1 1 37.791829 21.060335 13.382866
491 1 1 37.507881 20.877161 13.209024
492 1 1 37.295490 20.564660 13.168614
493 1 1 36.967167 20.529885 12.980480
494 1 1 36.899302 20.534357 12.606616
495 1 1 37.209262 20.586819 12.393140
496 1 1 37.269444 20.355105 12.098035
497 1 1 37.444849 20.132710 11.844710
498 1 1 37.467383 19.799131 11.664107
499 1 1 37.317270 19.640449 11.353163
500 1 1 37.478268 19.367497 11.143456
501 1 1 37.490134 19.345224 10.764295
502 1 1 37.399325 19.617817 10.515605
503 1 1 37.363880 19.964303 10.667563
504 1 1 37.044471 20.164545 10.619805
505 1 1 36.812693 20.386772 10.823014
506 1 1 36.437835 20.412690 10.879670
507 1 1 36.319134 20.749911 10.750859
508 1 1 36.592098 20.996927 10.845060
509 1 1 36.896678 21.095356 11.049859
510 1 1 37.089533 21.326199 11.282063
511 1 1 37.415056 21.299233 11.476248
512 1 1 37.749302 21.127284 11.532042
513 1 1 0.020858 21.472060 11.415219
514 1 1 0.050897 21.102441 11.332276
515 1 1 0.085037 20.731614 11.256634
516 1 1 0.292618 20.443023 11.122375
517 1 1 37.816977 20.283951 11.267536
518 1 1 0.067985 20.173292 11.620140
519 1 1 0.047189 19.838054 11.442425
520 1 1 0.223639 19.534044 11.586796
521 1 1 0.353831 19.190714 11.684646
522 1 1 0.538070 18.978243 11.940209
523 1 1 0.649341 19.021314 12.300990
524 1 1 0.388826 18.860178 12.525862
525 1 1 0.150856 18.816973 12.818955
526 1 1 37.828018 19.078646 13.043088
527 1 1 37.455156 19.013699 13.009086
528 1 1 37.211179 18.728924 13.070555
529 1 1 37.115578 18.409983 13.253687
530 1 1 36.832894 18.443785 13.505375
531 1 1 36.835874 18.583907 13.858585
532 1 1 36.981632 18.932879 13.821535
533 1 1 36.987804 19.247642 14.034341
534 1 1 36.885594 19.536804 14.258703
535 1 1 36.999544 19.445023 14.609404
536 1 1 37.196505 19.196700 14.819028
537 1 1 37.492420 18.966627 14.756571
538 1 1 37.425687 18.641866 14.942251
539 1 1 37.416689 18.326928 15.154696
540 1 1 37.406686 18.020486 15.379181
541 1 1 37.168248 17.763652 15.526094
542 1 1 37.107810 17.576725 15.851372
543 1 1 36.929124 17.548718 16.185568
544 1 1 36.644599 17.296900 16.191345
545 1 1 36.292294 17.362873 16.065137
546 1 1 36.108288 17.136544 15.821586
547 1 1 35.919625 17.079289 15.496735
548 1 1 35.768694 16.980984 15.162137
549 1 1 35.921826 16.767672 14.887458
550 1 1 35.933521 16.403827 14.996452
551 1 1 35.929592 16.249222 15.343557
552 1 1 36.100385 15.910054 15.329600
553 1 1 35.938211 15.647724 15.551596
554 1 1 35.574604 15.571072 15.631061
555 1 1 35.288476 15.400919 15.814307
556 1 1 35.315859 15.025364 15.763231
557 1 1 35.099631 14.782158 15.567028
558 1 1 34.773019 14.896333 15.409900
559 1 1 34.419618 14.988248 15.515063
560 1 1 34.323352 15.283216 15.295685
561 1 1 34.605926 15.500227 15.163557
562 1 1 34.922672 15.675299 15.047702
563 1 1 35.187889 15.455707 14.886957
564 1 1 35.556799 15.370202 14.918495
565 1 1 35.697851 15.177396 14.622978
566 1 1 35.724279 15.246988 14.250340
567 1 1 35.631804 15.610736 14.190876
568 1 1 35.570006 15.931150 14.385596
569 1 1 35.217235 16.058329 14.447062
570 1 1 34.901612 16.204580 14.600010
571 1 1 34.769745 16.520107 14.434317
572 1 1 34.409758 16.501845 14.314002
573 1 1 34.353725 16.807505 14.095296
574 1 1 34.174965 17.121297 14.213533
575 1 1 34.017422 17.415302 14.031485
576 1 1 33.703070 17.520780 13.845858
577 1 1 33.557455 17.732617 13.565999
578 1 1 33.528332 18.032240 13.334097
579 1 1 33.405170 18.354119 13.494175
580 1 1 33.319061 18.522033 13.824008
581 1 1 33.607200 18.696724 13.999675
582 1 1 33.827352 18.942910 13.811723
583 1 1 34.152719 19.075391 13.666861
584 1 1 34.290683 19.428972 13.648236
585 1 1 34.407930 19.652875 13.364475
586 1 1 34.431261 19.822755 13.025363
587 1 1 34.203446 19.736665 12.733664
588 1 1 34.339640 19.610313 12.402173
589 1 1 34.444613 19.268962 12.272324
590 1 1 34.491825 18.891917 12.275157
591 1 1 34.175458 18.703455 12.368934
592 1 1 33.858123 18.886015 12.267099
593 1 1 33.611184 19.159588 12.174478
594 1 1 33.382964 19.459172 12.225129
595 1 1 33.253051 19.638292 11.916197
596 1 1 33.030893 19.858111 11.700036
597 1 1 33.145627 20.216756 11.648949
598 1 1 33.410094 20.462352 11.767858
599 1 1 33.463356 20.770639 11.983549
600 1 1 33.531785 21.115870 12.126842
601 1 1 33.580089 21.321123 12.442972
602 1 1 33.679228 21.460463 12.782318
603 1 1 33.810055 21.691099 13.054515
604 1 1 34.148363 21.836176 13.148859
605 1 1 34.457771 21.878168 13.365431
606 1 1 34.346379 22.052627 13.684109
607 1 1 34.581980 22.055085 13.982247
608 1 1 34.834517 22.327131 13.900906
609 1 1 34.885571 22.703295 13.883760
610 1 1 34.729697 23.038617 13.971294
611 1 1 34.749664 23.319997 13.716683
612 1 1 35.067675 23.527695 13.705263
613 1 1 35.226028 23.819708 13.889798
614 1 1 35.591464 23.729466 13.941886
615 1 1 35.918334 23.580462 14.065795
616 1 1 36.103069 23.342438 13.834240
617 1 1 36.358562 23.074726 13.747907
618 1 1 36.561321 23.061972 13.426774
619 1 1 36.851462 22.826143 13.494616
620 1 1 37.184088 22.643848 13.471632
621 1 1 37.522514 22.573352 13.313839
622 1 1 37.821172 22.782499 13.206784
623 1 1 0.163663 22.458100 13.124395
624 1 1 0.534072 22.403372 13.189215
625 1 1 0.693698 22.151341 12.953843
626 1 1 0.940297 21.909400 12.795560
627 1 1 1.111394 21.808908 12.471481
628 1 1 0.900701 21.650483 12.197784
629 1 1 0.754947 21.380399 11.973707
630 1 1 0.750379 21.149549 11.671900
631 1 1 0.938116 20.939378 11.416983
632 1 1 1.107070 20.654199 11.602800
633 1 1 1.358722 20.811552 11.840099
634 1 1 1.393644 20.580732 12.139936
635 1 1 1.303322 20.281648 12.356248
636 1 1 1.331274 19.965232 12.564814
637 1 1 1.478604 19.636922 12.686905
638 1 1 1.353025 19.447526 12.991469
639 1 1 1.592053 19.351790 13.270934
640 1 1 1.584009 19.583805 13.571773
641 1 1 1.653016 19.592739 13.945348
642 1 1 1.934369 19.369411 14.069305
643 1 1 1.909445 18.992348 14.109324
644 1 1 1.885692 18.636764 13.977429
645 1 1 1.834815 18.504359 13.624895
646 1 1 1.582830 18.497220 13.340549
647 1 1 1.640792 18.403087 12.976984
648 1 1 1.900788 18.495459 12.715700
649 1 1 2.141396 18.364760 12.452212
650 1 1 2.338202 18.551261 12.185970
651 1 1 2.607210 18.794664 12.299061
652 1 1 2.886084 19.010806 12.157950
653 1 1 3.250771 18.928134 12.225536
654 1 1 3.525607 18.757571 12.026102
655 1 1 3.634846 18.566426 11.716376
656 1 1 3.567614 18.780128 11.409437
657 1 1 3.236202 18.742242 11.227417
658 1 1 2.978858 19.008483 11.312797
659 1 1 2.635564 18.945438 11.463046
660 1 1 2.283423 18.822338 11.535452
661 1 1 1.970444 18.702022 11.356656
662 1 1 1.656473 18.649514 11.149135
663 1 1 1.572900 18.444205 10.840487
664 1 1 1.474219 18.158531 10.610155
665 1 1 1.138934 18.000839 10.694517
666 1 1 0.937601 17.856486 10.982661
667 1 1 0.572585 17.891492 11.082353
668 1 1 0.248018 17.875176 11.279305
669 1 1 0.128209 18.212299 11.407343
670 1 1 37.761621 18.531610 11.435808
671 1 1 37.693925 18.597943 11.067817
672 1 1 0.121654 18.863668 11.008901
673 1 1 0.466244 18.992003 11.104754
674 1 1 0.832410 18.926642 11.182540
675 1 1 1.181881 19.056002 11.108138
676 1 1 1.376837 19.380834 11.078534
677 1 1 1.176572 19.689115 10.982318
678 1 1 0.897483 19.939050 10.918743
679 1 1 0.845939 20.293176 10.790924
680 1 1 0.548316 20.387670 10.574379
681 1 1 0.182776 20.470005 10.511123
682 1 1 37.651232 20.560567 10.504513
683 1 1 37.477122 20.500985 10.172044
684 1 1 37.464028 20.720619 9.862222
685 1 1 37.373095 21.044403 9.685317
686 1 1 37.703067 21.199697 9.578534
687 1 1 0.201064 21.299580 9.430547
688 1 1 0.146500 21.044272 9.154431
689 1 1 0.064066 21.067159 8.784186
690 1 1 37.637559 21.337804 8.745717
691 1 1 37.433369 21.500998 9.021533
692 1 1 37.144728 21.345900 9.213966
693 1 1 36.777188 21.442140 9.206742
694 1 1 36.464733 21.619925 9.083598
695 1 1 36.593487 21.905771 8.868855
696 1 1 36.903067 21.989312 8.664941
697 1 1 37.154054 21.836275 8.424140
698 1 1 37.434584 22.068580 8.315801
699 1 1 37.612840 22.380722 8.192543
700 1 1 0.061114 22.162970 8.316424
701 1 1 0.317298 22.231575 8.044278
702 1 1 0.617906 22.376369 7.862429
703 1 1 0.513558 22.578674 7.558153
704 1 1 0.414147 22.571031 7.191466
705 1 1 0.055901 22.632435 7.080607
706 1 1 37.537306 22.499671 7.077899
707 1 1 37.563265 22.652172 6.730811
708 1 1 37.516943 22.570923 6.362500
709 1 1 37.425454 22.785178 6.062293
710 1 1 37.362171 23.153421 5.993068
711 1 1 37.316019 23.507211 5.862292
712 1 1 37.460329 23.849275 5.781253
713 1 1 37.301715 24.171802 5.904613
714 1 1 37.009264 24.397783 5.992960
715 1 1 37.070778 24.701143 6.213387
716 1 1 37.290303 24.719773 6.523003
717 1 1 37.564222 24.968883 6.608516
718 1 1 37.589127 25.340969 6.681534
719 1 1 0.093868 25.362644 6.517714
720 1 1 0.088597 25.118592 6.808938
721 1 1 0.374555 24.984568 7.020279
722 1 1 0.585431 24.687019 7.127031
723 1 1 0.921496 24.672818 7.303832
724 1 1 1.243672 24.529750 7.445726
725 1 1 1.523635 24.664276 7.226812
726 1 1 1.399677 24.694539 6.868876
727 1 1 1.595240 24.899445 6.615560
728 1 1 1.343365 25.149222 6.479285
729 1 1 1.223672 25.465177 6.305373
730 1 1 1.274924 25.805863 6.145040
731 1 1 1.449685 25.816148 5.807768
732 1 1 1.323265 26.118105 5.614791
733 1 1 1.461614 26.152270 5.262524
734 1 1 1.217338 26.174734 4.972310
735 1 1 1.026116 26.499167 5.023079
736 1 1 0.724209 26.726443 5.063052
737 1 1 0.613134 27.022859 5.273290
738 1 1 0.296760 27.107022 5.466225
739 1 1 37.804482 26.936476 5.547434
740 1 1 37.693369 27.061326 5.206163
741 1 1 0.052036 27.143749 4.891289
742 1 1 0.198504 27.262996 4.561551
743 1 1 37.814048 27.560603 4.642719
744 1 1 37.678744 27.321224 4.380440
745 1 1 37.441697 27.477624 4.127956
746 1 1 37.413319 27.631715 3.781762
747 1 1 37.703224 27.605969 3.537442
748 1 1 37.752264 27.269622 3.367543
749 1 1 37.750323 26.894781 3.429917
750 1 1 0.235832 26.725866 3.322369
751 1 1 0.023638 26.969899 3.521923
752 1 1 0.096662 27.294184 3.706060
753 1 1 0.251080 27.544755 3.946412
754 1 1 0.577597 27.738571 3.961327
755 1 1 0.847385 27.613821 4.198080
756 1 1 0.821360 27.629542 4.576862
757 1 1 0.862301 27.533123 4.942139
758 1 1 0.845334 27.641916 5.305836
759 1 1 0.994406 27.407009 5.564672
760 1 1 0.906916 27.174376 5.852122
761 1 1 1.207349 26.999869 6.006031
762 1 1 1.528336 27.197402 5.957573
763 1 1 1.811329 26.960971 5.865839
764 1 1 2.086615 26.837130 5.635011
765 1 1 2.173025 26.556661 5.393619
766 1 1 2.505576 26.380008 5.342595
767 1 1 2.695541 26.167674 5.594046
768 1 1 2.647825 26.057108 5.954461
769 1 1 2.485678 26.203287 6.265491
770 1 1 2.252316 25.951847 6.428954
771 1 1 2.100401 25.678092 6.213593
772 1 1 1.909543 25.427795 6.000697
773 1 1 1.704313 25.248781 5.735679
774 1 1 1.573651 24.979087 5.502029
775 1 1 1.518035 24.768643 5.190548
776 1 1 1.247973 24.501338 5.194387
777 1 1 1.213399 24.177437 4.998702
778 1 1 1.516847 23.948936 5.009038
779 1 1 1.888970 24.016517 4.972202
780 1 1 2.173984 24.204929 5.138538
781 1 1 2.515180 24.071993 5.036981
782 1 1 2.587901 23.853062 4.735020
783 1 1 2.673462 23.489597 4.664500
784 1 1 2.416112 23.220438 4.740158
785 1 1 2.138957 23.103652 4.972421
786 1 1 2.228480 22.745105 5.060905
787 1 1 2.463251 22.512808 4.872967
788 1 1 2.809813 22.618270 4.758194
789 1 1 3.126105 22.827427 4.782955
790 1 1 3.378492 22.972810 4.538897
791 1 1 3.598956 23.237338 4.378210
792 1 1 3.761008 23.246759 4.034625
793 1 1 3.630027 23.038305 3.745159
794 1 1 3.677071 23.073933 3.369769
795 1 1 3.921168 22.951520 3.105511
796 1 1 3.803277 23.017457 2.750329
797 1 1 3.853489 22.945567 2.380585
798 1 1 4.227124 22.947371 2.311351