LAMMPS data file for polymer system

27000 atoms
26940 bonds

1 atom types
1 bond types

0.0 37.837447939934926 xlo xhi
0.0 37.837447939934926 ylo yhi
0.0 37.837447939934926 zlo zhi

Masses

1 5.65487

Atoms

1 1 1 18.465730 13.109613 7.207925
2 1 1 18.725652 13.369618 7.304039
3 1 1 18.724741 13.747110 7.260461
4 1 1 18.733736 13.802462 6.884622
5 1 1 18.999260 14.025524 6.729251
6 1 1 19.065124 13.992591 6.356454
7 1 1 19.419462 13.959686 6.223180
8 1 1 19.692161 14.174420 6.068503
9 1 1 19.964076 14.046827 5.835732
10 1 1 20.289960 14.030277 5.640988
11 1 1 20.414181 13.860860 5.324338
12 1 1 20.688190 14.083958 5.184531
13 1 1 20.573430 14.444828 5.216204
14 1 1 20.252342 14.608060 5.095135
15 1 1 20.033707 14.328820 4.958668
16 1 1 19.854421 14.065010 4.752122
17 1 1 19.601602 13.821579 4.897808
18 1 1 19.271687 13.843098 5.085138
19 1 1 19.011160 13.646006 5.279253
20 1 1 18.764809 13.451713 5.064867
21 1 1 18.903623 13.268044 4.762549
22 1 1 19.196353 13.457554 4.611568
23 1 1 19.070586 13.755474 4.412002
24 1 1 18.998541 14.097738 4.560544
25 1 1 19.186961 14.357160 4.764500
26 1 1 19.311156 14.714731 4.731058
27 1 1 19.446602 14.982103 4.964653
28 1 1 19.606346 15.326081 4.988345
29 1 1 19.411938 15.643482 5.064910
30 1 1 19.331739 15.718579 5.428680
31 1 1 19.350829 16.092105 5.495864
32 1 1 19.449028 16.406215 5.685843
33 1 1 19.267645 16.453685 6.016368
34 1 1 19.430735 16.536128 6.349543
35 1 1 19.800209 16.597028 6.284891
36 1 1 20.000133 16.608369 5.961933
37 1 1 19.940740 16.775749 5.625993
38 1 1 19.987848 16.822204 5.251796
39 1 1 19.736689 16.965566 5.005288
40 1 1 19.616714 17.298622 4.867160
41 1 1 19.813118 17.375910 4.551166
42 1 1 19.900285 17.722558 4.422180
43 1 1 20.248235 17.873996 4.402247
44 1 1 20.609903 17.768472 4.451854
45 1 1 20.727956 17.428829 4.574761
46 1 1 21.052966 17.232008 4.580216
47 1 1 21.376913 17.300744 4.766587
48 1 1 21.706668 17.253354 4.583788
49 1 1 21.745239 17.542581 4.340354
50 1 1 21.793317 17.821307 4.086582
51 1 1 21.813264 17.723370 3.719961
52 1 1 22.096620 17.843189 3.496908
53 1 1 22.364677 17.731627 3.251756
54 1 1 22.653675 17.814870 3.019484
55 1 1 22.684490 17.938955 2.661638
56 1 1 23.036039 17.922872 2.518270
57 1 1 23.250076 18.177539 2.334605
58 1 1 23.390452 18.254547 1.989982
59 1 1 23.689671 18.304458 1.761123
60 1 1 24.006792 18.457637 1.618396
61 1 1 24.124285 18.628598 1.300013
62 1 1 24.461121 18.722555 1.151306
63 1 1 24.728163 18.470192 1.248266
64 1 1 24.828127 18.235875 1.530229
65 1 1 24.913796 17.925827 1.732543
66 1 1 24.973029 17.771939 2.074902
67 1 1 24.750533 17.590972 2.324194
68 1 1 24.522879 17.771941 2.568783
69 1 1 24.587282 17.931105 2.907780
70 1 1 24.474692 17.979986 3.267410
71 1 1 24.390212 17.681237 3.486527
72 1 1 24.168536 17.454728 3.696177
73 1 1 24.058327 17.093028 3.733951
74 1 1 24.177321 16.790707 3.536866
75 1 1 24.246896 16.672332 3.182540
76 1 1 24.524362 16.413323 3.164442
77 1 1 24.487537 16.048022 3.066467
78 1 1 24.347248 15.980159 2.719893
79 1 1 24.042619 16.175595 2.604109
80 1 1 23.750441 16.143469 2.363278
81 1 1 23.603985 16.129413 2.012917
82 1 1 23.286510 16.338091 2.020870
83 1 1 22.983536 16.193522 2.198934
84 1 1 22.656010 16.261137 2.379363
85 1 1 22.673671 16.295540 2.757390
86 1 1 22.815056 16.507349 3.039431
87 1 1 22.875448 16.844115 3.204783
88 1 1 23.237479 16.936249 3.274387
89 1 1 23.584209 17.030191 3.150476
90 1 1 23.634218 17.170456 2.800869
91 1 1 23.350821 17.399348 2.692728
92 1 1 23.113593 17.193545 2.478793
93 1 1 22.865269 17.396777 2.275244
94 1 1 22.586715 17.237305 2.071831
95 1 1 22.542958 17.242297 1.694392
96 1 1 22.496262 16.925752 1.489408
97 1 1 22.161903 16.910195 1.309513
98 1 1 22.208516 16.890096 0.932918
99 1 1 22.337724 17.202853 0.760036
100 1 1 22.396282 17.576268 0.799172
101 1 1 22.571174 17.612186 1.134616
102 1 1 22.932083 17.669551 1.238800
103 1 1 23.176683 17.899770 1.416479
104 1 1 23.483959 17.694485 1.505018
105 1 1 23.660981 17.447803 1.276519
106 1 1 23.868382 17.309803 0.989569
107 1 1 23.897612 17.027615 0.736753
108 1 1 24.112960 16.740008 0.860475
109 1 1 23.974702 16.386802 0.837446
110 1 1 23.696364 16.168670 0.976538
111 1 1 23.535995 16.308915 1.291201
112 1 1 23.252783 16.068033 1.369732
113 1 1 22.876189 16.085138 1.321939
114 1 1 22.645529 15.891747 1.553879
115 1 1 22.369400 15.632481 1.584439
116 1 1 22.270733 15.285383 1.703552
117 1 1 22.449743 15.036329 1.927889
118 1 1 22.651596 15.027577 2.249725
119 1 1 22.567881 15.144646 2.601416
120 1 1 22.230054 15.196334 2.767554
121 1 1 22.077162 14.881563 2.915686
122 1 1 21.917200 14.573814 2.760436
123 1 1 21.751465 14.267919 2.913276
124 1 1 21.705461 14.035369 3.210269
125 1 1 21.569242 14.230645 3.506430
126 1 1 21.442652 14.037895 3.808460
127 1 1 21.592384 13.854146 4.105473
128 1 1 21.662257 13.882477 4.477918
129 1 1 21.485860 14.084669 4.746995
130 1 1 21.592851 14.199437 5.093089
131 1 1 21.404220 14.514994 5.189224
132 1 1 21.368603 14.859679 5.033264
133 1 1 21.105913 15.128242 5.090429
134 1 1 21.223187 15.384165 5.345675
135 1 1 21.141144 15.742858 5.250761
136 1 1 20.911459 16.043633 5.285100
137 1 1 20.767862 16.388235 5.356015
138 1 1 20.748786 16.554483 5.697186
139 1 1 20.609291 16.894999 5.792001
140 1 1 20.834126 17.154869 5.954225
141 1 1 21.174596 17.315459 6.006103
142 1 1 21.186958 17.607781 5.763626
143 1 1 21.250518 17.961953 5.641468
144 1 1 21.194508 18.086434 5.286831
145 1 1 20.843734 18.197608 5.191974
146 1 1 20.660359 18.306168 5.506598
147 1 1 20.580922 18.035129 5.760818
148 1 1 20.496972 17.695962 5.910212
149 1 1 20.139588 17.693332 6.039322
150 1 1 19.851515 17.932065 6.105810
151 1 1 19.711640 18.155383 6.379606
152 1 1 20.007336 18.344130 6.525682
153 1 1 20.323182 18.534396 6.617553
154 1 1 20.576666 18.325045 6.808126
155 1 1 20.628387 18.446740 7.164378
156 1 1 20.847752 18.497598 7.470470
157 1 1 20.707386 18.709246 7.753140
158 1 1 20.426736 18.920936 7.897442
159 1 1 20.507736 19.283652 7.976663
160 1 1 20.604735 19.344046 8.339077
161 1 1 20.566823 19.334439 8.717059
162 1 1 20.860953 19.436193 8.935081
163 1 1 21.085161 19.735101 8.865906
164 1 1 21.194200 19.693337 8.504290
165 1 1 21.331927 19.348520 8.423468
166 1 1 21.377345 18.972574 8.455115
167 1 1 21.498418 18.744450 8.733863
168 1 1 21.834728 18.741207 8.910740
169 1 1 22.113594 18.893564 9.119117
170 1 1 22.167938 19.260468 9.036482
171 1 1 22.097710 19.386440 8.684915
172 1 1 22.145628 19.430852 8.310574
173 1 1 21.833935 19.437288 8.093304
174 1 1 21.806301 19.243212 7.767772
175 1 1 21.815010 19.407041 7.425013
176 1 1 21.542823 19.489691 7.173053
177 1 1 21.626542 19.757198 6.916478
178 1 1 21.959754 19.933033 6.866960
179 1 1 22.245951 20.159785 6.972195
180 1 1 22.208400 20.346910 7.300789
181 1 1 22.233170 20.358292 7.679810
182 1 1 22.395381 20.683686 7.790294
183 1 1 22.256502 20.963313 8.006907
184 1 1 22.379571 21.146235 8.316413
185 1 1 22.138498 21.237401 8.595648
186 1 1 22.218958 21.585178 8.725944
187 1 1 22.346278 21.894704 8.905898
188 1 1 22.599639 22.058674 8.674982
189 1 1 22.577110 21.897221 8.331725
190 1 1 22.852398 21.645036 8.260879
191 1 1 23.116481 21.726497 8.000064
192 1 1 23.053818 21.480847 7.716992
193 1 1 22.934561 21.482774 7.356196
194 1 1 22.844027 21.822791 7.212697
195 1 1 22.892857 22.173398 7.074528
196 1 1 23.249008 22.300165 7.113081
197 1 1 23.446197 22.004413 7.247421
198 1 1 23.798763 21.879703 7.314832
199 1 1 23.923266 21.521423 7.337958
200 1 1 23.882207 21.206735 7.546969
201 1 1 23.742902 20.874010 7.427435
202 1 1 23.523431 20.735348 7.149937
203 1 1 23.236461 20.836404 6.922261
204 1 1 23.234025 20.666783 6.582228
205 1 1 23.039199 20.763025 6.270490
206 1 1 23.117645 21.009238 5.991877
207 1 1 23.338475 21.318459 5.995930
208 1 1 23.613944 21.310348 5.734298
209 1 1 23.589780 21.545514 5.436787
210 1 1 23.258794 21.731499 5.452846
211 1 1 23.028023 21.812009 5.161877
212 1 1 22.698879 21.991480 5.223959
213 1 1 22.559307 22.034094 5.574820
214 1 1 22.336494 21.907095 5.855223
215 1 1 22.047637 21.958207 6.096778
216 1 1 21.777420 22.223860 6.068293
217 1 1 21.473541 22.372376 5.895086
218 1 1 21.166115 22.450404 5.685800
219 1 1 20.893879 22.656233 5.852898
220 1 1 21.012008 22.876620 6.139035
221 1 1 21.207952 23.202109 6.131066
222 1 1 21.417621 23.213221 5.814340
223 1 1 21.320475 23.469091 5.550725
224 1 1 21.326231 23.838833 5.638235
225 1 1 21.118883 24.149560 5.568552
226 1 1 20.835033 24.053391 5.334927
227 1 1 20.495044 24.205060 5.258740
228 1 1 20.204354 24.448531 5.283660
229 1 1 20.334733 24.779733 5.416728
230 1 1 20.444106 24.887146 5.764435
231 1 1 20.292707 25.204978 5.907477
232 1 1 20.019040 25.261520 6.164983
233 1 1 20.057968 25.509270 6.450473
234 1 1 20.332039 25.760657 6.528509
235 1 1 20.697253 25.674919 6.467947
236 1 1 20.910806 25.413376 6.293618
237 1 1 20.965412 25.195724 5.986949
238 1 1 21.336972 25.118002 5.969577
239 1 1 21.428702 24.795425 6.148265
240 1 1 21.634484 24.795033 6.467724
241 1 1 21.726148 24.865317 6.829743
242 1 1 22.058386 24.911864 7.008211
243 1 1 22.297270 25.199998 6.942540
244 1 1 22.226575 25.369672 6.609954
245 1 1 22.217351 25.416822 6.233003
246 1 1 22.448512 25.302456 5.953925
247 1 1 22.743725 25.311534 5.714828
248 1 1 22.868783 24.974937 5.590477
249 1 1 22.968313 24.611915 5.538435
250 1 1 22.871203 24.364763 5.266616
251 1 1 23.164371 24.325546 5.028050
252 1 1 23.070867 24.294431 4.661050
253 1 1 23.015456 24.047541 4.377545
254 1 1 23.031586 23.692285 4.243631
255 1 1 23.006454 23.358369 4.063997
256 1 1 23.231497 23.104939 3.892157
257 1 1 23.060406 22.871589 3.645833
258 1 1 23.182918 22.814153 3.290739
259 1 1 23.470195 22.844015 3.043798
260 1 1 23.784647 23.041137 2.962169
261 1 1 24.038193 22.956963 3.232409
262 1 1 24.044941 22.741138 3.545098
263 1 1 23.873161 22.408570 3.479599
264 1 1 23.963850 22.039553 3.480814
265 1 1 23.992629 21.661188 3.460529
266 1 1 24.086918 21.310132 3.349761
267 1 1 23.856065 21.014347 3.289610
268 1 1 23.673755 20.852368 2.998189
269 1 1 23.614528 20.526866 2.811264
270 1 1 23.722196 20.362307 2.486106
271 1 1 23.815758 20.245816 2.136712
272 1 1 24.161850 20.090093 2.117459
273 1 1 24.397709 19.810523 2.014447
274 1 1 24.697000 19.576503 2.006758
275 1 1 24.900516 19.294940 1.852798
276 1 1 24.888257 19.312342 1.473394
277 1 1 25.120085 19.322020 1.172459
278 1 1 25.189168 19.690404 1.109848
279 1 1 25.349483 19.845689 0.802300
280 1 1 25.663602 20.052067 0.746285
281 1 1 25.946014 20.294095 0.668400
282 1 1 26.245544 20.076638 0.582408
283 1 1 26.616500 20.095678 0.662590
284 1 1 26.866462 19.825750 0.567418
285 1 1 26.807141 19.479586 0.712509
286 1 1 26.588755 19.168945 0.698029
287 1 1 26.681189 18.811564 0.788224
288 1 1 26.377123 18.583653 0.788468
289 1 1 26.001416 18.621844 0.746206
290 1 1 25.911963 18.803201 0.424480
291 1 1 25.760948 18.650753 0.110865
292 1 1 25.485121 18.460207 37.769394
293 1 1 25.749110 18.196812 37.696367
294 1 1 26.013682 18.112957 37.436810
295 1 1 26.222362 18.244943 37.147963
296 1 1 26.468598 18.058515 36.926576
297 1 1 26.463889 17.826050 36.626013
298 1 1 26.656227 17.500032 36.659454
299 1 1 26.914819 17.224205 36.697525
300 1 1 26.921943 16.846070 36.734447
301 1 1 26.822161 16.678303 36.408413
302 1 1 27.028604 16.826001 36.125629
303 1 1 27.158394 17.045501 35.843895
304 1 1 27.473250 17.242951 35.923136
305 1 1 27.629092 17.320680 35.585391
306 1 1 27.932742 17.461431 35.405431
307 1 1 28.126105 17.684507 35.166165
308 1 1 28.484857 17.805303 35.199413
309 1 1 28.769490 17.554028 35.215067
310 1 1 28.933356 17.257726 35.387559
311 1 1 28.897768 17.219726 35.763975
312 1 1 28.785961 17.514795 35.975713
313 1 1 28.492924 17.683026 36.149574
314 1 1 28.294598 17.938729 36.348779
315 1 1 28.441100 18.277355 36.257843
316 1 1 28.166797 18.538936 36.284918
317 1 1 28.041935 18.671111 36.618594
318 1 1 27.967833 18.499312 36.949342
319 1 1 28.106679 18.360508 37.274695
320 1 1 27.957670 18.013278 37.315040
321 1 1 27.960408 17.673644 37.485456
322 1 1 28.110361 17.324494 37.482611
323 1 1 28.402478 17.201272 37.273126
324 1 1 28.650810 16.914362 37.293479
325 1 1 28.987706 16.955495 37.122573
326 1 1 29.323700 16.983620 37.297835
327 1 1 29.294927 17.016195 37.675341
328 1 1 29.164894 16.740454 0.064737
329 1 1 29.329366 16.397920 0.060293
330 1 1 29.518085 16.207033 37.628767
331 1 1 29.891740 16.144099 37.600106
332 1 1 30.101441 16.456416 37.653802
333 1 1 30.089863 16.832471 37.600424
334 1 1 30.243943 17.142447 37.443663
335 1 1 30.463592 17.281940 37.166722
336 1 1 30.801321 17.439913 37.240098
337 1 1 31.050191 17.505545 36.960533
338 1 1 31.315748 17.713434 36.785429
339 1 1 31.502664 17.972371 36.991376
340 1 1 31.447733 18.156234 37.319365
341 1 1 31.240761 18.473382 37.350657
342 1 1 30.902471 18.638908 37.401264
343 1 1 30.726755 18.821407 37.118036
344 1 1 30.635573 18.900778 36.757778
345 1 1 30.573224 18.630869 36.497659
346 1 1 30.306689 18.684566 36.232187
347 1 1 30.419481 18.796578 35.887033
348 1 1 30.345154 18.858479 35.519550
349 1 1 30.265093 18.790252 35.154399
350 1 1 30.236156 18.521363 34.887451
351 1 1 30.424693 18.361502 34.598837
352 1 1 30.780542 18.250651 34.672889
353 1 1 31.076575 18.103768 34.860479
354 1 1 31.415264 18.206845 34.998554
355 1 1 31.588409 17.997633 35.264357
356 1 1 31.919744 17.847555 35.154384
357 1 1 32.039678 17.657697 34.847839
358 1 1 32.106932 17.355716 34.627194
359 1 1 31.792886 17.143236 34.602151
360 1 1 31.467972 17.306360 34.491602
361 1 1 31.202074 17.552152 34.606861
362 1 1 30.951325 17.442074 34.870315
363 1 1 30.631042 17.279138 34.993890
364 1 1 30.417191 16.995788 34.858317
365 1 1 30.054146 17.069448 34.773627
366 1 1 29.820441 17.279145 34.987658
367 1 1 29.586299 17.406644 35.258438
368 1 1 29.578790 17.215219 35.586614
369 1 1 29.827628 17.289729 35.863973
370 1 1 30.048725 17.008663 35.992495
371 1 1 30.173644 16.736789 35.758231
372 1 1 29.892345 16.510196 35.640222
373 1 1 29.517683 16.449881 35.620448
374 1 1 29.293367 16.186969 35.462462
375 1 1 29.166449 15.983764 35.167505
376 1 1 28.806959 15.869044 35.212298
377 1 1 28.583387 15.632112 35.016650
378 1 1 28.219827 15.735168 34.976598
379 1 1 27.897308 15.646296 34.796369
380 1 1 27.567655 15.828193 34.847777
381 1 1 27.588553 16.124798 35.084396
382 1 1 27.440428 16.472554 35.045350
383 1 1 27.576405 16.805507 35.168040
384 1 1 27.763600 17.046931 34.942049
385 1 1 28.085492 16.880290 34.827957
386 1 1 28.336527 17.079414 34.623675
387 1 1 28.342371 17.308685 34.320688
388 1 1 28.629657 17.555887 34.348217
389 1 1 28.990230 17.667023 34.393338
390 1 1 29.142427 17.774106 34.724652
391 1 1 29.268113 18.132460 34.738271
392 1 1 29.094167 18.416254 34.921585
393 1 1 28.864246 18.653822 35.108928
394 1 1 28.994621 18.992364 35.222027
395 1 1 29.369881 19.041184 35.187437
396 1 1 29.544362 18.750149 35.358479
397 1 1 29.566647 18.827832 35.729786
398 1 1 29.256800 18.966577 35.900504
399 1 1 29.041179 18.974505 36.213305
400 1 1 28.970481 18.654951 36.406404
401 1 1 29.183098 18.647683 36.721271
402 1 1 29.446845 18.508015 36.956495
403 1 1 29.258935 18.398157 37.267977
404 1 1 29.263289 18.689101 37.512379
405 1 1 29.267113 19.054691 37.408797
406 1 1 29.272236 19.388072 37.226502
407 1 1 29.123355 19.324212 36.882764
408 1 1 28.814973 19.491651 36.736939
409 1 1 28.492307 19.556866 36.926766
410 1 1 28.179074 19.690111 36.757855
411 1 1 27.979799 19.787860 36.449416
412 1 1 27.705128 19.812450 36.187975
413 1 1 27.722188 20.047551 35.889921
414 1 1 27.806657 20.137291 35.530460
415 1 1 27.923778 20.498791 35.530938
416 1 1 27.970399 20.854955 35.406947
417 1 1 28.245079 21.096814 35.509199
418 1 1 28.585840 21.233834 35.606704
419 1 1 28.775580 21.467382 35.374639
420 1 1 28.785505 21.768447 35.142989
421 1 1 28.970538 21.904889 34.840423
422 1 1 29.329718 21.795209 34.782456
423 1 1 29.649644 21.594864 34.738760
424 1 1 29.672394 21.251353 34.899640
425 1 1 29.803125 20.896746 34.860102
426 1 1 29.756994 20.530909 34.951945
427 1 1 29.803653 20.199170 35.131312
428 1 1 29.845556 20.086589 35.491825
429 1 1 29.937685 20.311405 35.784007
430 1 1 30.115242 20.646152 35.755412
431 1 1 30.485423 20.679894 35.676498
432 1 1 30.823549 20.610855 35.835571
433 1 1 31.077305 20.419174 36.043575
434 1 1 31.329423 20.213174 36.239536
435 1 1 31.362341 19.850285 36.131702
436 1 1 31.686576 19.713538 36.275131
437 1 1 32.062187 19.708433 36.332494
438 1 1 32.401899 19.566278 36.426237
439 1 1 32.767830 19.501386 36.505504
440 1 1 33.117451 19.376065 36.585877
441 1 1 33.151214 19.245915 36.941293
442 1 1 32.849564 19.350818 37.147213
443 1 1 32.714947 19.198481 37.468261
444 1 1 32.835988 19.023400 37.783056
445 1 1 33.086815 19.132528 0.209382
446 1 1 32.896235 19.414961 0.041124
447 1 1 32.595488 19.601192 0.179939
448 1 1 32.312321 19.356690 0.246535
449 1 1 32.017689 19.138771 0.347051
450 1 1 31.976929 19.020245 37.825765
451 1 1 23.860343 30.308388 28.021372
452 1 1 24.216366 30.402214 28.115414
453 1 1 24.208223 30.693139 28.359742
454 1 1 24.060193 30.923484 28.623234
455 1 1 24.098314 30.927289 29.001298
456 1 1 24.461196 30.912979 29.113155
457 1 1 24.825078 30.972364 29.021156
458 1 1 25.168844 31.131407 28.990664
459 1 1 25.319305 31.470683 29.072234
460 1 1 25.308310 31.499075 29.451013
461 1 1 25.081387 31.674917 29.699982
462 1 1 24.729513 31.785796 29.608927
463 1 1 24.645402 32.155943 29.591148
464 1 1 24.822087 32.415469 29.377072
465 1 1 24.617169 32.504844 29.069793
466 1 1 24.309363 32.418636 28.864308
467 1 1 24.164440 32.412360 28.513085
468 1 1 23.835587 32.601140 28.537941
469 1 1 23.519905 32.476094 28.708553
470 1 1 23.331373 32.589213 29.018488
471 1 1 23.255054 32.961460 29.021166
472 1 1 23.374365 33.250888 28.805769
473 1 1 23.651663 33.186784 28.553982
474 1 1 23.800131 33.520507 28.449168
475 1 1 24.091385 33.613903 28.223671
476 1 1 24.426520 33.630492 28.402023
477 1 1 24.390225 33.528492 28.766274
478 1 1 24.310985 33.829193 28.984677
479 1 1 24.243924 34.190967 28.889693
480 1 1 23.937216 34.382317 28.772580
481 1 1 23.810465 34.740246 28.787454
482 1 1 23.669047 34.821122 28.444146
483 1 1 23.787898 34.711214 28.100352
484 1 1 23.825235 34.899821 27.772582
485 1 1 23.850560 35.253375 27.635620
486 1 1 23.602975 35.491794 27.473577
487 1 1 23.364883 35.773673 27.382712
488 1 1 23.173391 36.058037 27.218796
489 1 1 23.138875 36.137987 26.848909
490 1 1 22.784383 36.040564 26.752761
491 1 1 22.819702 35.700561 26.586779
492 1 1 23.095301 35.680405 26.325937
493 1 1 23.131160 35.926517 26.038634
494 1 1 23.492403 35.892391 25.925764
495 1 1 23.639576 36.189542 25.740180
496 1 1 24.007764 36.113235 25.685273
497 1 1 24.202962 36.086385 26.010199
498 1 1 24.410028 36.378805 26.136747
499 1 1 24.650283 36.525582 26.391962
500 1 1 25.013987 36.440651 26.462002
501 1 1 25.302027 36.686532 26.430771
502 1 1 25.413506 36.814289 26.090696
503 1 1 25.673441 36.666973 25.855894
504 1 1 25.909258 36.521382 25.595907
505 1 1 26.180134 36.460530 25.336440
506 1 1 26.498126 36.298207 25.206315
507 1 1 26.812254 36.112421 25.100449
508 1 1 26.689971 35.769543 24.991448
509 1 1 26.457811 35.469442 25.012456
510 1 1 26.383546 35.128799 25.163610
511 1 1 26.159346 35.178470 25.466375
512 1 1 25.886233 35.099784 25.718602
513 1 1 25.661253 35.318319 25.933139
514 1 1 25.590300 35.625861 26.144760
515 1 1 25.262974 35.753656 26.289420
516 1 1 25.011970 35.555285 26.494472
517 1 1 24.858268 35.295397 26.725196
518 1 1 24.569375 35.072313 26.619486
519 1 1 24.208085 34.956852 26.642686
520 1 1 23.937734 34.753824 26.816150
521 1 1 23.702820 34.500914 26.657243
522 1 1 23.769743 34.163942 26.819636
523 1 1 23.441535 33.973713 26.841818
524 1 1 23.294388 33.649960 26.707907
525 1 1 23.515616 33.344137 26.751843
526 1 1 23.394977 33.059059 26.531443
527 1 1 23.071622 32.921142 26.675736
528 1 1 22.776338 32.938721 26.437203
529 1 1 22.404404 32.889271 26.497366
530 1 1 22.287009 32.528750 26.522729
531 1 1 22.068097 32.335773 26.766116
532 1 1 21.697114 32.415669 26.785825
533 1 1 21.421634 32.466394 26.529041
534 1 1 21.450740 32.388964 26.158154
535 1 1 21.285379 32.594177 25.884396
536 1 1 21.145867 32.921200 25.750261
537 1 1 21.083255 33.285184 25.839679
538 1 1 21.306321 33.589334 25.793488
539 1 1 21.662552 33.457084 25.790411
540 1 1 21.954270 33.424057 26.031678
541 1 1 21.932165 33.493034 26.404711
542 1 1 21.634630 33.725397 26.448076
543 1 1 21.267003 33.820406 26.463025
544 1 1 21.124729 33.753685 26.809011
545 1 1 21.037570 33.776427 27.178181
546 1 1 20.799871 33.707135 27.466448
547 1 1 20.795775 33.959387 27.750617
548 1 1 21.034763 34.015499 28.040679
549 1 1 21.039548 33.796481 28.351176
550 1 1 20.872220 33.737601 28.687234
551 1 1 20.903976 33.553243 29.017996
552 1 1 21.089138 33.386350 29.304809
553 1 1 21.111237 33.580642 29.630634
554 1 1 21.230818 33.392633 29.938454
555 1 1 21.207394 33.453419 30.312828
556 1 1 21.258736 33.822935 30.385087
557 1 1 21.083021 34.047714 30.636083
558 1 1 21.117452 34.351478 30.861786
559 1 1 20.889714 34.332283 31.165375
560 1 1 20.520565 34.400387 31.224464
561 1 1 20.349058 34.732840 31.291249
562 1 1 19.973982 34.746108 31.350767
563 1 1 19.810186 34.937103 31.635534
564 1 1 19.568385 35.198362 31.502585
565 1 1 19.311669 35.399772 31.307826
566 1 1 19.054366 35.317035 31.040712
567 1 1 18.949152 34.956923 30.980302
568 1 1 19.117556 34.630184 31.076643
569 1 1 19.088710 34.277985 30.936916
570 1 1 19.229357 34.016117 31.173651
571 1 1 19.285206 33.646436 31.241599
572 1 1 19.521202 33.389926 31.392956
573 1 1 19.575326 33.251063 31.742510
574 1 1 19.866373 33.434494 31.903894
575 1 1 20.029842 33.764014 31.999257
576 1 1 20.222963 34.035592 32.181877
577 1 1 19.986136 34.332709 32.187715
578 1 1 20.162614 34.621530 32.360451
579 1 1 20.434868 34.866901 32.260098
580 1 1 20.705068 35.017908 32.480527
581 1 1 21.000538 35.225343 32.361916
582 1 1 21.351333 35.219033 32.215959
583 1 1 21.730396 35.238735 32.197984
584 1 1 22.062495 35.415966 32.249939
585 1 1 22.146769 35.740511 32.071140
586 1 1 22.283823 35.991413 31.820812
587 1 1 22.488434 36.250031 32.009626
588 1 1 22.392877 36.610865 31.938444
589 1 1 22.327535 36.873688 31.671882
590 1 1 22.289557 37.249783 31.710742
591 1 1 22.520257 37.533987 31.608734
592 1 1 22.560021 37.545967 31.231010
593 1 1 22.663263 0.030278 31.404826
594 1 1 22.757845 0.136561 31.052465
595 1 1 22.991486 0.183544 30.756485
596 1 1 23.356044 0.237990 30.848862
597 1 1 23.458490 37.827990 30.579281
598 1 1 23.474618 37.648289 30.244845
599 1 1 23.600408 37.735616 29.897064
600 1 1 23.744742 0.061305 29.585690
601 1 1 23.790953 0.419031 29.466122
602 1 1 24.016474 0.700815 29.347218
603 1 1 24.095455 1.059567 29.249959
604 1 1 24.436517 1.202644 29.337164
605 1 1 24.797820 1.311855 29.293189
606 1 1 25.120171 1.253002 29.485610
607 1 1 25.415630 1.021119 29.543356
608 1 1 25.775659 0.904982 29.579295
609 1 1 26.134474 0.796655 29.516710
610 1 1 26.423319 0.552492 29.553490
611 1 1 26.730502 0.400804 29.389085
612 1 1 27.067711 0.470057 29.550001
613 1 1 27.097478 0.296337 29.886654
614 1 1 27.059208 37.774570 29.768756
615 1 1 27.265343 37.532780 29.560319
616 1 1 27.626140 37.441946 29.483025
617 1 1 27.967388 37.331968 29.357109
618 1 1 28.240992 37.317774 29.093785
619 1 1 28.493649 37.138428 28.873786
620 1 1 28.560823 36.806328 29.045825
621 1 1 28.670455 36.543923 29.297865
622 1 1 28.662019 36.218872 29.494513
623 1 1 28.671626 35.905151 29.280300
624 1 1 28.839806 35.568207 29.331134
625 1 1 29.149780 35.360150 29.402046
626 1 1 29.526455 35.330673 29.361461
627 1 1 29.760238 35.381072 29.066155
628 1 1 29.911007 35.055511 28.940942
629 1 1 30.143991 34.843632 29.153607
630 1 1 30.200224 34.752476 29.518200
631 1 1 30.042298 34.879086 29.839805
632 1 1 30.142076 35.241378 29.896274
633 1 1 30.309597 35.424256 29.608364
634 1 1 30.383415 35.665251 29.323983
635 1 1 30.380685 35.985360 29.119232
636 1 1 30.380507 36.335761 29.266266
637 1 1 30.286892 36.528712 29.579963
638 1 1 29.975084 36.742335 29.540703
639 1 1 29.624576 36.886125 29.511231
640 1 1 29.644726 37.161779 29.250446
641 1 1 29.559391 37.505132 29.389105
642 1 1 29.580198 37.643069 29.742575
643 1 1 29.478862 37.399989 30.016514
644 1 1 29.718396 37.359293 30.308691
645 1 1 29.505598 37.415166 30.618522
646 1 1 29.519532 37.343588 30.991459
647 1 1 29.311814 37.047860 31.108925
648 1 1 29.092698 36.836973 30.881076
649 1 1 28.987162 36.756601 30.524983
650 1 1 29.153215 36.486187 30.315930
651 1 1 28.989220 36.165129 30.195817
652 1 1 28.776439 35.906946 30.376000
653 1 1 28.479188 35.830121 30.152081
654 1 1 28.116023 35.787297 30.048748
655 1 1 27.785993 35.611172 30.115529
656 1 1 27.692549 35.377702 29.830644
657 1 1 27.892935 35.471712 29.521763
658 1 1 28.099857 35.392529 29.213035
659 1 1 28.234503 35.410744 28.858156
660 1 1 28.232214 35.609348 28.534195
661 1 1 27.967668 35.810032 28.349420
662 1 1 27.716909 35.867473 28.069741
663 1 1 27.389723 36.044149 27.991416
664 1 1 27.440554 36.418296 27.948641
665 1 1 27.394833 36.517391 27.584649
666 1 1 27.188534 36.833416 27.540280
667 1 1 27.186207 37.113891 27.283904
668 1 1 27.309416 37.330699 26.997175
669 1 1 27.266154 37.409713 26.628006
670 1 1 26.980595 37.476646 26.386395
671 1 1 26.688295 37.248377 26.303608
672 1 1 26.616150 37.227658 25.931095
673 1 1 26.922877 37.287103 25.714797
674 1 1 27.233985 37.505303 25.714967
675 1 1 27.521793 37.676785 25.535634
676 1 1 27.763529 0.124302 25.604618
677 1 1 27.405217 0.019622 25.533526
678 1 1 27.071080 0.158244 25.649874
679 1 1 26.902580 0.424331 25.437260
680 1 1 26.764887 0.506973 25.092860
681 1 1 26.910617 0.615994 24.759277
682 1 1 26.905850 0.496621 24.398546
683 1 1 27.095904 0.293446 24.139704
684 1 1 27.409557 0.236665 23.932827
685 1 1 27.472270 37.719726 24.054797
686 1 1 27.421801 37.617993 24.417431
687 1 1 27.307651 37.749293 24.755262
688 1 1 26.949802 37.825101 24.858204
689 1 1 26.796584 37.499250 24.979633
690 1 1 26.503182 37.258588 24.999560
691 1 1 26.290100 37.229852 24.686239
692 1 1 26.406286 37.339456 24.341437
693 1 1 26.618037 37.346017 24.025972
694 1 1 26.526988 37.510628 23.695801
695 1 1 26.499377 0.040043 23.790931
696 1 1 26.401003 0.350600 23.986575
697 1 1 26.388984 0.724869 24.051214
698 1 1 26.594572 1.011875 23.910640
699 1 1 26.859293 1.088682 24.172219
700 1 1 27.132105 1.307229 24.023185
701 1 1 27.093667 1.665186 24.144798
702 1 1 27.182566 2.024384 24.058347
703 1 1 27.526516 2.076404 24.211293
704 1 1 27.810008 2.147605 24.454115
705 1 1 28.005388 2.032388 24.758995
706 1 1 27.769514 2.008034 25.055930
707 1 1 27.396847 2.015030 25.129891
708 1 1 27.090719 1.846590 25.279269
709 1 1 26.796731 2.084441 25.241879
710 1 1 26.529717 2.166864 24.984371
711 1 1 26.275360 1.956263 24.796355
712 1 1 26.274105 1.610477 24.638780
713 1 1 26.129361 1.329131 24.849240
714 1 1 25.902060 1.036912 24.934928
715 1 1 25.791051 1.030461 25.298294
716 1 1 25.625948 1.230163 25.576252
717 1 1 25.347686 1.487925 25.599254
718 1 1 25.150876 1.453829 25.922524
719 1 1 25.333762 1.455307 26.255617
720 1 1 25.227286 1.164045 26.475229
721 1 1 25.156355 0.790750 26.470848
722 1 1 25.490819 0.629439 26.390147
723 1 1 25.618203 0.298376 26.526421
724 1 1 25.870064 0.109616 26.313499
725 1 1 26.046252 37.670014 26.504812
726 1 1 26.387392 37.837359 26.500481
727 1 1 26.608150 0.305511 26.548173
728 1 1 26.391029 0.037994 26.708464
729 1 1 26.380127 0.008594 27.087168
730 1 1 26.008945 37.765414 27.098271
731 1 1 25.968203 37.758580 27.476019
732 1 1 26.057274 37.744406 27.845160
733 1 1 26.076672 37.405512 28.015966
734 1 1 26.342757 37.447929 28.283921
735 1 1 26.384780 37.151562 28.518016
736 1 1 26.399911 36.791234 28.637744
737 1 1 26.535764 36.706972 28.982481
738 1 1 26.883196 36.613501 29.104767
739 1 1 26.932383 36.244742 29.182208
740 1 1 27.143966 35.930323 29.210024
741 1 1 27.287104 35.924890 29.561993
742 1 1 27.180186 36.163132 29.838053
743 1 1 26.908726 36.416862 29.917617
744 1 1 26.703351 36.729026 29.848515
745 1 1 26.470336 36.932594 29.627916
746 1 1 26.140253 37.067946 29.758778
747 1 1 25.810676 36.942887 29.900692
748 1 1 25.803782 37.028062 30.270959
749 1 1 26.164685 37.063301 30.384571
750 1 1 26.467359 37.150627 30.597085
751 1 1 26.804068 36.977104 30.627367
752 1 1 27.004008 36.677415 30.748240
753 1 1 27.242709 36.419329 30.892511
754 1 1 27.165080 36.229371 31.212339
755 1 1 26.928076 36.067399 31.461325
756 1 1 26.582471 36.093853 31.305577
757 1 1 26.275866 36.030028 31.520798
758 1 1 26.167509 36.083676 31.881049
759 1 1 26.323459 35.849157 32.136157
760 1 1 26.336637 36.020218 32.475220
761 1 1 26.122854 35.954861 32.782507
762 1 1 25.965090 35.609677 32.763556
763 1 1 26.112297 35.291815 32.910842
764 1 1 25.967716 35.008471 32.702966
765 1 1 26.045561 34.646810 32.616124
766 1 1 26.100881 34.548432 32.253272
767 1 1 25.825149 34.337748 32.098407
768 1 1 25.603295 34.189372 31.827915
769 1 1 25.778317 34.245681 31.495354
770 1 1 25.719202 34.598643 31.367590
771 1 1 25.682415 34.711201 31.006512
772 1 1 25.409786 34.764867 30.747295
773 1 1 25.049503 34.832187 30.847615
774 1 1 24.701951 34.697050 30.920730
775 1 1 24.392764 34.533657 30.772049
776 1 1 24.289416 34.245420 30.547018
777 1 1 23.934713 34.315388 30.430013
778 1 1 23.703185 34.342683 30.730096
779 1 1 23.615577 34.709812 30.774162
780 1 1 23.384994 34.985728 30.651273
781 1 1 23.209757 35.304782 30.542202
782 1 1 23.158789 35.607501 30.766174
783 1 1 23.128608 35.687134 31.136508
784 1 1 23.370939 35.713752 31.427999
785 1 1 23.734355 35.743038 31.320896
786 1 1 24.013415 35.924651 31.137750
787 1 1 24.033293 36.268786 30.977826
788 1 1 24.038804 36.569533 31.210035
789 1 1 24.162797 36.855776 30.993032
790 1 1 23.983818 37.118629 30.785006
791 1 1 23.612233 37.169372 30.723772
792 1 1 23.440952 36.901557 30.931951
793 1 1 23.345957 36.535019 30.963981
794 1 1 23.406294 36.300012 30.671524
795 1 1 23.387245 36.495098 30.345981
796 1 1 23.161081 36.369034 30.067848