LAMMPS data file for polymer system

27000 atoms
26940 bonds

1 atom types
1 bond types

0.0 37.837447939934926 xlo xhi
0.0 37.837447939934926 ylo yhi
0.0 37.837447939934926 zlo zhi

Masses

1 5.65487

Atoms

1 1 1 25.269018 16.914755 34.579677
2 1 1 24.903885 17.017923 34.558835
3 1 1 24.550296 17.034785 34.697002
4 1 1 24.178592 16.998984 34.767394
5 1 1 23.897717 16.748042 34.817764
6 1 1 23.554235 16.658002 34.953088
7 1 1 23.444272 16.808074 35.284430
8 1 1 23.502433 16.567968 35.573163
9 1 1 23.256698 16.595774 35.861678
10 1 1 22.971873 16.822957 35.969671
11 1 1 22.683544 16.859808 35.724910
12 1 1 22.475349 16.926693 35.414134
13 1 1 22.209521 16.781451 35.184699
14 1 1 22.282103 16.800252 34.812170
15 1 1 22.093734 16.860362 34.487664
16 1 1 21.879523 17.092335 34.276236
17 1 1 21.736693 17.389380 34.465350
18 1 1 21.904273 17.708203 34.586464
19 1 1 21.846708 17.819576 34.945187
20 1 1 22.004132 17.582878 35.197361
21 1 1 21.844043 17.445822 35.513568
22 1 1 22.001797 17.275826 35.814592
23 1 1 21.758835 17.001954 35.916392
24 1 1 21.555445 16.778754 36.147075
25 1 1 21.622715 16.884408 36.505839
26 1 1 21.629200 16.866113 36.885343
27 1 1 21.358978 16.691849 37.087859
28 1 1 21.029644 16.600009 37.253704
29 1 1 21.045918 16.237509 37.366527
30 1 1 20.926291 15.876863 37.371431
31 1 1 21.043696 15.531708 37.264267
32 1 1 21.364467 15.333541 37.216987
33 1 1 21.350583 15.019876 37.002927
34 1 1 21.527542 14.742028 37.192362
35 1 1 21.612654 14.750141 37.562619
36 1 1 21.538466 14.575631 0.054477
37 1 1 21.702308 14.249666 0.160795
38 1 1 21.736618 13.986794 0.433046
39 1 1 21.706606 13.609307 0.401376
40 1 1 21.461722 13.380955 0.581064
41 1 1 21.380120 13.089644 0.351110
42 1 1 21.310286 13.143004 37.818861
43 1 1 21.187144 13.010713 37.484592
44 1 1 21.463426 12.788490 37.347900
45 1 1 21.836469 12.719408 37.326295
46 1 1 22.020689 12.804241 37.004944
47 1 1 22.326442 13.025338 36.959879
48 1 1 22.201397 13.335379 36.779218
49 1 1 22.150848 13.700969 36.688725
50 1 1 22.214664 13.985655 36.445247
51 1 1 22.497387 13.949676 36.193905
52 1 1 22.535540 13.577394 36.127946
53 1 1 22.753014 13.375205 36.365064
54 1 1 22.773083 13.011479 36.256895
55 1 1 22.530128 12.721479 36.221216
56 1 1 22.217894 12.706678 36.005135
57 1 1 21.879834 12.863362 36.079736
58 1 1 21.578616 13.020949 36.249542
59 1 1 21.424233 12.811043 36.526138
60 1 1 21.561368 12.512814 36.717589
61 1 1 21.564026 12.150097 36.604323
62 1 1 21.618207 11.877088 36.863033
63 1 1 21.496433 11.522256 36.923573
64 1 1 21.480686 11.219433 37.152594
65 1 1 21.466667 10.898796 36.949136
66 1 1 21.769047 10.754872 36.769546
67 1 1 21.804011 10.391236 36.874170
68 1 1 21.773523 10.023179 36.963637
69 1 1 21.419367 9.890659 36.926064
70 1 1 21.097865 9.975360 37.110080
71 1 1 21.103111 9.767289 37.428009
72 1 1 21.242271 9.440417 37.562878
73 1 1 21.177945 9.351963 0.089350
74 1 1 21.339506 9.525988 0.386021
75 1 1 21.663846 9.531357 0.583947
76 1 1 22.021272 9.660241 0.577989
77 1 1 22.288576 9.410448 0.680710
78 1 1 22.531600 9.129665 0.761335
79 1 1 22.408511 8.826142 0.954009
80 1 1 22.545702 8.487511 1.058449
81 1 1 22.745145 8.208650 1.222336
82 1 1 23.084958 8.348915 1.318529
83 1 1 23.209337 8.211392 1.650218
84 1 1 23.407405 8.007139 1.902109
85 1 1 23.302074 7.643230 1.931699
86 1 1 23.251200 7.291182 1.798007
87 1 1 23.029448 7.092813 2.034387
88 1 1 23.104016 7.179917 2.396675
89 1 1 23.245888 7.291591 2.731042
90 1 1 23.422800 7.408038 3.046546
91 1 1 23.719958 7.350212 3.276226
92 1 1 24.006574 7.196167 3.472494
93 1 1 24.271420 7.024775 3.260642
94 1 1 24.642184 7.055060 3.338214
95 1 1 24.791275 6.711609 3.403120
96 1 1 24.687141 6.441207 3.648964
97 1 1 24.462382 6.139407 3.596050
98 1 1 24.090742 6.173034 3.667838
99 1 1 23.924866 5.923408 3.901445
100 1 1 23.692709 5.627649 3.956487
101 1 1 23.900036 5.346850 4.106714
102 1 1 24.182654 5.094344 4.079009
103 1 1 24.471261 4.969004 4.292072
104 1 1 24.757113 4.978606 4.542264
105 1 1 25.034632 4.781672 4.711380
106 1 1 25.028421 4.415058 4.811157
107 1 1 25.288498 4.138149 4.820177
108 1 1 25.378880 3.835696 5.031726
109 1 1 25.678652 3.602277 5.038962
110 1 1 25.913900 3.638899 5.335134
111 1 1 26.279835 3.536916 5.325631
112 1 1 26.448758 3.666230 5.010761
113 1 1 26.466306 3.764292 4.644052
114 1 1 26.228256 3.532378 4.459801
115 1 1 26.098271 3.176123 4.435590
116 1 1 26.071879 3.006919 4.096365
117 1 1 25.778331 2.879458 3.891466
118 1 1 25.809771 2.530786 3.743684
119 1 1 25.811261 2.155048 3.800420
120 1 1 25.957488 1.883635 3.578266
121 1 1 25.830010 1.528415 3.533906
122 1 1 25.864633 1.292539 3.829817
123 1 1 25.756462 1.148887 4.164576
124 1 1 25.751154 1.204811 4.540400
125 1 1 25.903215 1.529555 4.666173
126 1 1 26.129446 1.720236 4.904627
127 1 1 26.061717 1.586165 5.253680
128 1 1 25.807743 1.305270 5.222132
129 1 1 25.948259 0.975571 5.095824
130 1 1 25.777873 0.647830 5.185013
131 1 1 25.498704 0.449469 5.349688
132 1 1 25.508807 0.081100 5.256939
133 1 1 25.847193 0.018250 5.095866
134 1 1 25.639155 37.830130 4.778901
135 1 1 25.786042 0.107782 4.447878
136 1 1 25.983332 0.431849 4.469262
137 1 1 26.362286 0.422992 4.496008
138 1 1 26.645997 0.574852 4.698112
139 1 1 26.802831 0.283838 4.885500
140 1 1 26.982217 0.123947 5.179873
141 1 1 26.756363 37.718587 4.994307
142 1 1 26.575430 37.392630 5.067894
143 1 1 26.724532 37.066077 4.943267
144 1 1 26.939189 36.875549 5.192309
145 1 1 26.893791 36.991886 5.551202
146 1 1 26.880572 36.863849 5.908738
147 1 1 27.050285 37.031035 6.204789
148 1 1 27.418854 37.097542 6.269087
149 1 1 27.723684 37.315226 6.333059
150 1 1 27.923113 37.617133 6.216954
151 1 1 28.295244 37.656096 6.150620
152 1 1 28.272218 0.013699 6.475927
153 1 1 28.305317 0.391363 6.449960
154 1 1 28.621953 0.598533 6.484918
155 1 1 28.804317 0.897167 6.336724
156 1 1 28.797594 0.954195 5.961087
157 1 1 28.896289 1.048862 5.606549
158 1 1 29.228987 1.204311 5.508838
159 1 1 29.518493 1.299658 5.281911
160 1 1 29.863743 1.160668 5.205203
161 1 1 29.870842 0.797343 5.094097
162 1 1 30.126071 0.581069 4.913865
163 1 1 30.468998 0.430276 4.850125
164 1 1 30.480365 0.051062 4.828502
165 1 1 30.288146 37.574777 4.923490
166 1 1 30.250614 37.622861 5.298562
167 1 1 30.551505 37.669907 5.525832
168 1 1 30.797930 37.386759 5.585011
169 1 1 30.823392 37.013053 5.649008
170 1 1 30.747103 36.791500 5.948163
171 1 1 31.016407 36.600054 6.135844
172 1 1 31.323884 36.440803 6.292359
173 1 1 31.633611 36.557878 6.105913
174 1 1 31.847490 36.341222 5.878502
175 1 1 31.615454 36.102156 5.695726
176 1 1 31.249202 36.193807 5.738843
177 1 1 31.020032 36.426121 5.544134
178 1 1 31.127711 36.423583 5.179718
179 1 1 31.175428 36.277470 4.832192
180 1 1 30.889353 36.336880 4.589228
181 1 1 30.634805 36.363138 4.308308
182 1 1 30.827759 36.512532 4.017017
183 1 1 30.848739 36.618250 3.652622
184 1 1 30.604543 36.699841 3.373138
185 1 1 30.729549 36.752335 3.018148
186 1 1 30.951822 36.877632 2.736554
187 1 1 31.190719 37.158960 2.827011
188 1 1 31.535372 37.176481 2.667928
189 1 1 31.682239 36.828583 2.710327
190 1 1 31.790251 36.522885 2.512130
191 1 1 32.164555 36.473523 2.555255
192 1 1 32.227061 36.104871 2.487514
193 1 1 32.421536 35.787702 2.564865
194 1 1 32.417329 35.495656 2.807952
195 1 1 32.659753 35.265385 2.988522
196 1 1 32.693513 34.886910 2.992703
197 1 1 32.549322 34.713068 3.298297
198 1 1 32.479839 34.618689 3.659773
199 1 1 32.460386 34.245227 3.727208
200 1 1 32.324499 33.937759 3.904403
201 1 1 32.141769 33.622505 4.012221
202 1 1 31.773436 33.571779 3.933747
203 1 1 31.424326 33.634903 3.797594
204 1 1 31.317580 33.398714 3.519709
205 1 1 30.991100 33.315273 3.344071
206 1 1 30.759591 33.154426 3.089254
207 1 1 30.705740 32.840787 2.881575
208 1 1 30.886692 32.666110 2.596716
209 1 1 30.889482 32.287402 2.627907
210 1 1 30.964779 32.063944 2.329918
211 1 1 31.059982 31.699685 2.278423
212 1 1 31.410662 31.623896 2.403641
213 1 1 31.415560 31.346172 2.662959
214 1 1 31.513478 31.352000 3.030080
215 1 1 31.284875 31.539922 3.268462
216 1 1 30.944429 31.522455 3.436364
217 1 1 30.679166 31.774541 3.538776
218 1 1 30.377871 31.694444 3.321508
219 1 1 30.064796 31.556762 3.487123
220 1 1 29.756699 31.587463 3.266819
221 1 1 29.616552 31.235736 3.234459
222 1 1 29.294398 31.035016 3.252568
223 1 1 29.159236 30.719770 3.089010
224 1 1 28.974310 30.643465 2.765931
225 1 1 29.194292 30.650937 2.456170
226 1 1 29.556109 30.758728 2.412932
227 1 1 29.927011 30.829148 2.456205
228 1 1 30.295213 30.867430 2.370403
229 1 1 30.644231 30.717266 2.364275
230 1 1 30.717986 30.407436 2.156995
231 1 1 30.872071 30.113206 1.972369
232 1 1 31.189990 29.908533 1.934466
233 1 1 31.452543 30.006095 2.191269
234 1 1 31.592548 29.816084 2.489085
235 1 1 31.743178 29.956849 2.808297
236 1 1 31.928293 30.005457 3.136580
237 1 1 32.234877 29.836198 3.284083
238 1 1 32.514801 29.801648 3.538738
239 1 1 32.476798 29.523441 3.794779
240 1 1 32.242853 29.224031 3.789977
241 1 1 32.130532 28.971527 4.050795
242 1 1 32.091234 28.672678 4.282193
243 1 1 31.873692 28.788133 4.571581
244 1 1 31.816548 29.057262 4.833695
245 1 1 32.165142 29.140913 4.959729
246 1 1 32.465649 29.361226 5.034279
247 1 1 32.777483 29.203953 5.184028
248 1 1 33.145647 29.139630 5.115343
249 1 1 33.258017 28.783505 5.185688
250 1 1 33.622214 28.709102 5.106792
251 1 1 33.926647 28.930988 5.056920
252 1 1 34.292549 29.012448 4.994626
253 1 1 34.664600 28.945074 4.956694
254 1 1 34.747712 28.669546 5.204841
255 1 1 35.096437 28.542004 5.124071
256 1 1 35.336054 28.258121 5.204032
257 1 1 35.577634 27.984400 5.309465
258 1 1 35.948225 27.982220 5.393477
259 1 1 36.284452 28.077918 5.244504
260 1 1 36.515929 28.136674 5.540082
261 1 1 36.580662 28.481741 5.685472
262 1 1 36.643137 28.573398 6.048923
263 1 1 36.861519 28.797887 6.264129
264 1 1 37.236192 28.804991 6.327130
265 1 1 37.328328 29.010287 6.633341
266 1 1 37.517508 28.959277 6.958930
267 1 1 37.697409 29.271360 7.079924
268 1 1 37.652745 29.597341 6.889814
269 1 1 0.100315 29.792294 7.048428
270 1 1 0.189608 29.444289 6.924656
271 1 1 0.471848 29.225589 7.054698
272 1 1 0.703544 29.050202 7.299558
273 1 1 1.010363 29.204526 7.462181
274 1 1 1.384307 29.226531 7.398290
275 1 1 1.658929 28.966034 7.431809
276 1 1 2.030553 29.037813 7.465617
277 1 1 2.376834 29.072216 7.312954
278 1 1 2.747816 29.107393 7.387353
279 1 1 2.997483 29.317798 7.581765
280 1 1 3.321236 29.383612 7.769521
281 1 1 3.585650 29.114897 7.721799
282 1 1 3.497138 28.815371 7.505351
283 1 1 3.620267 28.476308 7.624831
284 1 1 3.474572 28.133881 7.547908
285 1 1 3.291976 27.864121 7.352234
286 1 1 3.039481 27.979165 7.092598
287 1 1 2.940701 28.336501 7.009210
288 1 1 3.210454 28.541281 6.836878
289 1 1 3.482340 28.745615 6.667390
290 1 1 3.574303 29.114318 6.668206
291 1 1 3.424536 29.290962 6.969481
292 1 1 3.370557 29.649196 6.854787
293 1 1 3.327702 29.891110 6.564889
294 1 1 3.095032 30.189220 6.602242
295 1 1 3.014212 30.371205 6.925893
296 1 1 2.757289 30.644593 6.865482
297 1 1 2.817123 30.935058 7.103073
298 1 1 2.953372 31.114000 7.409367
299 1 1 3.170633 31.066572 7.717504
300 1 1 3.271099 31.330629 7.971630
301 1 1 3.468773 31.141214 8.235158
302 1 1 3.718979 30.918083 8.056246
303 1 1 3.892686 30.607925 8.190514
304 1 1 4.095380 30.390377 8.427132
305 1 1 4.474559 30.410005 8.411713
306 1 1 4.619659 30.346998 8.066205
307 1 1 4.602576 30.153493 7.739610
308 1 1 4.467010 30.121723 7.386039
309 1 1 4.088100 30.115875 7.414196
310 1 1 3.971122 30.429945 7.235096
311 1 1 4.072406 30.461330 6.870190
312 1 1 4.388303 30.354725 6.687859
313 1 1 4.604219 30.598435 6.491936
314 1 1 4.727134 30.903138 6.301024
315 1 1 4.868855 31.243879 6.391639
316 1 1 4.847077 31.559850 6.181669
317 1 1 4.624937 31.805157 6.368427
318 1 1 4.354963 31.664902 6.596117
319 1 1 3.992027 31.734333 6.507479
320 1 1 3.653656 31.565539 6.469877
321 1 1 3.358009 31.765373 6.600487
322 1 1 3.180896 31.601482 6.894034
323 1 1 3.148834 31.851949 7.178003
324 1 1 3.118128 32.227537 7.129105
325 1 1 3.123240 32.434430 6.810406
326 1 1 2.987766 32.348675 6.465887
327 1 1 2.867814 32.211062 6.132609
328 1 1 2.589966 31.955780 6.087537
329 1 1 2.288004 31.823223 5.898731
330 1 1 2.034012 31.953227 5.647758
331 1 1 1.758603 32.209975 5.596476
332 1 1 1.693033 32.582657 5.631245
333 1 1 1.989859 32.812350 5.690708
334 1 1 2.088075 32.966846 6.023702
335 1 1 2.360541 32.899481 6.279874
336 1 1 2.690934 32.790934 6.126715
337 1 1 2.998212 32.917054 5.942123
338 1 1 3.056734 32.928579 5.566833
339 1 1 3.140519 33.006397 5.204446
340 1 1 3.482033 33.122441 5.084854
341 1 1 3.613400 33.236243 4.746932
342 1 1 3.598329 33.573596 4.572673
343 1 1 3.415409 33.744771 4.286947
344 1 1 3.281419 34.036487 4.083604
345 1 1 2.936673 34.190212 4.127408
346 1 1 2.894868 34.229841 4.503017
347 1 1 2.700366 34.355727 4.804217
348 1 1 2.365395 34.216477 4.917369
349 1 1 2.116714 33.993656 4.735962
350 1 1 1.765645 33.851212 4.765292
351 1 1 1.608056 34.011413 5.071725
352 1 1 1.312527 33.957692 5.304483
353 1 1 0.949818 34.060166 5.256093
354 1 1 0.895777 34.344011 5.009291
355 1 1 0.685341 34.452665 4.712119
356 1 1 0.532897 34.156605 4.529063
357 1 1 0.173782 34.231425 4.429873
358 1 1 0.051336 34.155571 4.078229
359 1 1 37.808295 34.401841 4.356209
360 1 1 37.679246 34.219814 4.663800
361 1 1 37.437774 33.943190 4.761630
362 1 1 37.250480 33.829167 5.071984
363 1 1 37.487391 33.766915 5.362497
364 1 1 37.603584 33.754481 5.724083
365 1 1 0.103738 33.857857 5.583589
366 1 1 0.297011 33.576775 5.416142
367 1 1 0.338854 33.391156 5.087212
368 1 1 0.240428 33.156551 4.804949
369 1 1 0.161055 32.837216 4.614883
370 1 1 37.643718 32.726999 4.694759
371 1 1 37.563880 32.873572 4.353376
372 1 1 37.418932 33.224739 4.344917
373 1 1 37.153987 33.296454 4.607712
374 1 1 37.041119 33.157295 4.942817
375 1 1 36.964869 32.896775 5.208741
376 1 1 36.593857 32.820410 5.178440
377 1 1 36.325260 32.688637 5.412730
378 1 1 36.361785 32.896155 5.728961
379 1 1 36.555385 33.024279 6.029798
380 1 1 36.706183 33.188137 6.337712
381 1 1 36.570261 33.507854 6.491681
382 1 1 36.563895 33.803475 6.253002
383 1 1 36.796860 34.082960 6.362617
384 1 1 36.971473 34.296250 6.624184
385 1 1 37.246139 34.554768 6.670305
386 1 1 37.216012 34.797516 6.961107
387 1 1 37.533148 34.987130 7.049828
388 1 1 0.050404 35.117134 7.090870
389 1 1 0.322603 35.173241 7.350021
390 1 1 0.653915 35.316572 7.231326
391 1 1 0.865484 35.632111 7.222745
392 1 1 1.237468 35.677829 7.159994
393 1 1 1.561332 35.509729 7.266082
394 1 1 1.461280 35.246385 7.521110
395 1 1 1.782671 35.111560 7.672536
396 1 1 2.159591 35.145869 7.706513
397 1 1 2.514948 35.011833 7.694027
398 1 1 2.623309 34.649001 7.662230
399 1 1 2.651185 34.280976 7.571785
400 1 1 2.515958 33.990005 7.775376
401 1 1 2.392099 33.656100 7.907914
402 1 1 2.066523 33.545120 8.069420
403 1 1 2.010572 33.595976 8.441821
404 1 1 1.883582 33.318342 8.668081
405 1 1 1.657300 33.399609 8.962346
406 1 1 1.281687 33.443585 8.999517
407 1 1 1.002470 33.698773 8.963222
408 1 1 0.678494 33.558109 8.823033
409 1 1 0.743791 33.212478 8.679243
410 1 1 0.447734 33.080278 8.481067
411 1 1 0.111894 32.933280 8.581081
412 1 1 37.571682 32.902394 8.552458
413 1 1 37.195815 32.911745 8.497350
414 1 1 37.045824 33.142319 8.235170
415 1 1 36.901920 32.912032 7.969351
416 1 1 37.059460 32.566229 7.970464
417 1 1 36.831887 32.261976 7.976838
418 1 1 36.469847 32.221184 7.868843
419 1 1 36.297828 32.342903 7.552625
420 1 1 35.934756 32.402990 7.647328
421 1 1 35.846140 32.772366 7.657719
422 1 1 35.948205 33.084842 7.848354
423 1 1 36.120188 32.994471 8.174934
424 1 1 36.407335 33.221712 8.276463
425 1 1 36.510501 33.256237 8.640558
426 1 1 36.808259 33.310632 8.870300
427 1 1 37.022379 33.596907 8.741462
428 1 1 37.355946 33.619982 8.560907
429 1 1 37.732754 33.576199 8.583236
430 1 1 0.108022 33.684258 8.287473
431 1 1 0.396212 33.867719 8.121073
432 1 1 0.324646 34.153536 7.881101
433 1 1 0.213829 34.508858 7.957687
434 1 1 0.039832 34.843902 8.000943
435 1 1 37.657142 34.555237 7.888640
436 1 1 37.731183 34.201574 7.770994
437 1 1 37.741426 33.845633 7.903661
438 1 1 37.396182 33.694121 7.856216
439 1 1 37.330812 33.660917 7.483356
440 1 1 37.179689 33.617381 7.137428
441 1 1 36.985535 33.302563 7.050286
442 1 1 37.148834 32.998222 6.891826
443 1 1 37.234262 32.823485 6.565376
444 1 1 37.497790 32.834758 6.291834
445 1 1 37.599900 32.736602 5.939216
446 1 1 37.361466 32.929164 5.714562
447 1 1 37.071107 33.171334 5.752575
448 1 1 36.901731 33.509627 5.788211
449 1 1 36.603037 33.555216 5.557769
450 1 1 36.395260 33.810370 5.367704
451 1 1 28.648163 11.005878 24.188685
452 1 1 28.677742 10.639126 24.093722
453 1 1 28.720047 10.409514 23.793908
454 1 1 28.889780 10.615287 23.523264
455 1 1 29.047253 10.926951 23.673155
456 1 1 28.880523 11.266800 23.639929
457 1 1 29.094071 11.546299 23.496132
458 1 1 29.288216 11.719917 23.219429
459 1 1 29.230592 11.915798 22.898945
460 1 1 29.192610 12.117098 22.578889
461 1 1 29.148833 12.494502 22.585944
462 1 1 28.961049 12.788589 22.435443
463 1 1 28.855365 13.103940 22.619249
464 1 1 28.515318 13.219033 22.494662
465 1 1 28.451731 13.590181 22.545710
466 1 1 28.512587 13.852528 22.277623
467 1 1 28.359756 14.200234 22.289606
468 1 1 28.465941 14.549899 22.185398
469 1 1 28.786415 14.621337 22.376692
470 1 1 29.025160 14.916932 22.371783
471 1 1 29.387248 15.028471 22.400967
472 1 1 29.620870 14.728875 22.408909
473 1 1 29.555261 14.523444 22.096030
474 1 1 29.819080 14.299824 21.938570
475 1 1 29.720302 13.933028 21.928372
476 1 1 29.599777 13.768254 22.248876
477 1 1 29.554382 13.808320 22.624022
478 1 1 29.238807 14.008684 22.692336
479 1 1 28.915152 14.007991 22.891452
480 1 1 28.817421 14.286800 23.130438
481 1 1 28.675590 14.629756 23.048800
482 1 1 28.446112 14.886070 22.887420
483 1 1 28.162329 15.043752 22.689927
484 1 1 27.830625 14.897763 22.804203
485 1 1 27.690787 14.593883 22.623920
486 1 1 27.541096 14.397221 22.335273
487 1 1 27.173283 14.315096 22.286601
488 1 1 26.816892 14.289537 22.415955
489 1 1 26.511732 14.515239 22.434280
490 1 1 26.468571 14.838157 22.629884
491 1 1 26.289356 15.133525 22.471646
492 1 1 26.222242 15.205668 22.104643
493 1 1 26.402306 15.431567 21.857769
494 1 1 26.556282 15.532234 21.525267
495 1 1 26.298487 15.468752 21.253399
496 1 1 26.424345 15.352137 20.914341
497 1 1 26.664654 15.450793 20.636999
498 1 1 26.811396 15.544123 20.299128
499 1 1 27.133542 15.384317 20.176311
500 1 1 27.269394 15.067361 20.016677
501 1 1 27.033458 14.811596 19.863972
502 1 1 27.112481 14.686729 19.513881
503 1 1 27.400097 14.775538 19.281954
504 1 1 27.389422 15.102986 19.089434
505 1 1 27.135518 15.103273 18.806711
506 1 1 27.301198 15.288846 18.519461
507 1 1 27.253920 15.658764 18.446484
508 1 1 27.214546 16.007979 18.301921
509 1 1 27.061071 16.135762 17.978630
510 1 1 26.748423 16.321500 18.088868
511 1 1 26.377336 16.380381 18.032055
512 1 1 26.209461 16.179277 17.756783
513 1 1 26.191212 15.863036 17.546882
514 1 1 25.979413 15.577643 17.681389
515 1 1 26.179608 15.257481 17.638743
516 1 1 26.390143 14.945905 17.693475
517 1 1 26.507078 14.659181 17.473213
518 1 1 26.804615 14.492686 17.640997
519 1 1 26.951679 14.287035 17.924687
520 1 1 27.310375 14.218691 17.819490
521 1 1 27.532988 13.930262 17.711544
522 1 1 27.695589 13.864683 17.374409
523 1 1 27.878949 13.539877 17.301746
524 1 1 28.052717 13.417758 17.616851
525 1 1 28.423657 13.345955 17.576259
526 1 1 28.739187 13.548521 17.514547
527 1 1 28.764299 13.724116 17.178488
528 1 1 28.954792 14.013942 17.023203
529 1 1 28.770997 14.341258 17.082226
530 1 1 28.705219 14.614117 16.826059
531 1 1 28.704795 14.931955 16.617784
532 1 1 28.404184 15.164218 16.608486
533 1 1 28.352216 15.528003 16.511738
534 1 1 28.567715 15.739884 16.742100
535 1 1 28.576934 15.742253 17.121981
536 1 1 28.329567 16.002359 17.246697
537 1 1 28.009659 15.823513 17.347062
538 1 1 27.807322 15.852357 17.667418
539 1 1 27.829218 15.506827 17.824038
540 1 1 28.122947 15.489398 18.064495
541 1 1 28.470581 15.620269 18.144638
542 1 1 28.523327 15.675725 18.516851
543 1 1 28.604139 15.961294 18.754169
544 1 1 28.859255 15.848166 19.012079
545 1 1 29.149276 15.605313 18.975885
546 1 1 29.101698 15.252595 18.842744
547 1 1 29.093844 15.198043 18.466762
548 1 1 28.967809 15.072671 18.130910
549 1 1 28.929988 14.696330 18.167471
550 1 1 29.079395 14.527339 18.473281
551 1 1 29.238147 14.183695 18.440015
552 1 1 29.517141 13.967273 18.580456
553 1 1 29.779933 14.034646 18.846541
554 1 1 30.063889 13.794518 18.924691
555 1 1 30.384860 13.968684 18.819602
556 1 1 30.752878 13.874147 18.824657
557 1 1 30.788230 13.500037 18.881159
558 1 1 30.883789 13.185760 18.690113
559 1 1 30.657870 13.012666 18.438322
560 1 1 30.807902 12.888221 18.112126
561 1 1 31.169221 12.787724 18.050898
562 1 1 31.499972 12.783855 18.237951
563 1 1 31.795545 12.681841 18.022012
564 1 1 32.126994 12.497077 18.001923
565 1 1 32.443246 12.699002 18.062014
566 1 1 32.769180 12.876576 18.143464
567 1 1 32.785700 13.145311 18.411622
568 1 1 32.735462 13.509048 18.509454
569 1 1 32.867716 13.860686 18.566550
570 1 1 32.832118 14.068220 18.250224
571 1 1 33.107429 14.009313 17.995011
572 1 1 33.075525 13.738972 17.729875
573 1 1 33.224516 13.782980 17.383082
574 1 1 33.583260 13.904374 17.351995
575 1 1 33.862017 13.890894 17.609895
576 1 1 34.154368 13.658971 17.538181
577 1 1 34.317101 13.408872 17.302876
578 1 1 34.384965 13.555321 16.958860
579 1 1 34.498143 13.914589 17.009033
580 1 1 34.612221 14.080245 16.686629
581 1 1 34.767123 14.373599 16.501294
582 1 1 34.729141 14.547823 16.165730
583 1 1 34.530812 14.310681 15.944757
584 1 1 34.475078 13.934793 15.943397
585 1 1 34.784646 13.791455 15.776001
586 1 1 34.815581 13.415243 15.732321
587 1 1 35.077051 13.175451 15.868457
588 1 1 35.404768 13.144402 15.678622
589 1 1 35.626362 13.117358 15.371108
590 1 1 35.585656 12.966917 15.024538
591 1 1 35.725744 12.945556 14.671949
592 1 1 35.975650 12.746964 14.465773
593 1 1 36.312990 12.600416 14.561299
594 1 1 36.340822 12.254568 14.716264
595 1 1 36.691479 12.108229 14.721250
596 1 1 37.033322 12.070325 14.559675
597 1 1 36.982290 12.099326 14.184236
598 1 1 37.032427 11.976011 13.828315
599 1 1 36.882461 12.201284 13.561552
600 1 1 37.066843 12.400723 13.295794
601 1 1 37.174590 12.234532 12.971493
602 1 1 36.961525 12.042899 12.721933
603 1 1 36.699771 12.180046 12.483028
604 1 1 36.492259 11.877198 12.384937
605 1 1 36.234105 11.745414 12.630680
606 1 1 35.906425 11.700577 12.817804
607 1 1 35.850200 11.629677 13.186873
608 1 1 36.173880 11.558817 13.372911
609 1 1 36.515647 11.606300 13.532097
610 1 1 36.638005 11.305623 13.729637
611 1 1 36.407365 11.017010 13.640710
612 1 1 36.167046 10.825418 13.864180
613 1 1 36.009674 10.880878 14.205587
614 1 1 35.887192 10.569089 14.384991
615 1 1 35.675492 10.425104 14.665795
616 1 1 35.302279 10.390404 14.603282
617 1 1 35.059967 10.320801 14.318957
618 1 1 35.038147 10.084604 14.022082
619 1 1 34.963155 9.754194 13.850020
620 1 1 34.826476 9.474528 13.632061
621 1 1 34.833577 9.095079 13.612882
622 1 1 34.512343 8.913242 13.703128
623 1 1 34.327418 8.696870 13.954892
624 1 1 34.015910 8.867595 14.089858
625 1 1 33.652808 8.910161 14.193517
626 1 1 33.618227 9.197461 14.439815
627 1 1 33.676255 9.555827 14.327533
628 1 1 33.906931 9.851129 14.264404
629 1 1 34.270968 9.863168 14.372722
630 1 1 34.432326 9.814135 14.713249
631 1 1 34.164124 9.836652 14.981504
632 1 1 33.899994 10.106538 15.023892
633 1 1 33.756530 10.157466 15.372065
634 1 1 33.630621 10.128768 15.729449
635 1 1 33.279503 10.237151 15.826244
636 1 1 33.059041 9.971089 15.984383
637 1 1 32.779027 9.899750 16.231168
638 1 1 32.557356 9.787507 16.518681
639 1 1 32.197378 9.834180 16.631099
640 1 1 32.174842 9.939833 16.995420
641 1 1 32.012192 10.163827 17.255750
642 1 1 31.994630 10.308932 17.606515
643 1 1 31.994401 10.014324 17.846528
644 1 1 32.266139 9.829044 18.036870
645 1 1 32.562406 9.667210 17.862413
646 1 1 32.633356 9.338356 17.685717
647 1 1 32.449728 9.037292 17.827283
648 1 1 32.243441 8.783988 17.633163
649 1 1 32.415551 8.668080 17.314818
650 1 1 32.189026 8.722261 17.014566
651 1 1 31.862667 8.776513 16.827627
652 1 1 31.891984 8.683776 16.460284
653 1 1 31.572541 8.581321 16.281795
654 1 1 31.325611 8.769470 16.062647
655 1 1 31.072410 9.023845 15.937816
656 1 1 30.867987 8.875251 15.654036
657 1 1 30.561486 9.038431 15.499668
658 1 1 30.263348 8.967549 15.274970
659 1 1 30.312417 9.082152 14.916002
660 1 1 30.398176 9.325928 14.637400
661 1 1 30.738487 9.325372 14.468319
662 1 1 30.728950 9.540891 14.155493
663 1 1 30.939469 9.777617 13.945630
664 1 1 30.774144 10.018254 13.702399
665 1 1 30.732683 9.879328 13.351143
666 1 1 30.743358 9.502215 13.305630
667 1 1 30.592011 9.163592 13.222993
668 1 1 30.331190 9.208585 12.950325
669 1 1 30.155592 9.319767 12.632199
670 1 1 29.781053 9.281167 12.580911
671 1 1 29.572661 9.526121 12.378499
672 1 1 29.498473 9.893309 12.442288
673 1 1 29.427975 10.132333 12.729164
674 1 1 29.385356 10.493309 12.839978
675 1 1 29.443926 10.849344 12.720777
676 1 1 29.604679 11.072894 12.982662
677 1 1 29.558044 11.434404 12.875257
678 1 1 29.557072 11.811991 12.918001
679 1 1 29.503562 11.988055 13.250473
680 1 1 29.743589 12.213252 13.440403
681 1 1 30.011513 12.331267 13.198144
682 1 1 30.255966 12.588291 13.061831
683 1 1 30.594997 12.709264 12.940079
684 1 1 30.909672 12.775082 12.737476
685 1 1 30.882043 12.779938 12.358513
686 1 1 30.526123 12.782163 12.225411
687 1 1 30.150203 12.726957 12.219379
688 1 1 29.924061 12.621223 11.932883
689 1 1 29.752254 12.759218 11.623303
690 1 1 29.489127 12.812607 11.354391
691 1 1 29.218062 13.078210 11.334925
692 1 1 28.918612 12.944406 11.143023
693 1 1 28.674531 12.792510 11.391523
694 1 1 28.582209 12.620822 11.717713
695 1 1 28.567382 12.851484 12.019334
696 1 1 28.312814 13.003548 12.256972
697 1 1 28.213048 13.039600 12.621865
698 1 1 28.277193 13.348739 12.833332
699 1 1 28.341984 13.526591 13.162833
700 1 1 28.020093 13.708540 13.250476
701 1 1 27.735157 13.499562 13.390260
702 1 1 27.399168 13.327064 13.348356
703 1 1 27.124976 13.329250 13.611441
704 1 1 26.946448 13.526489 13.882779
705 1 1 26.645995 13.745117 13.962340
706 1 1 26.664408 13.971994 14.266622
707 1 1 26.536377 14.078348 14.608232
708 1 1 26.175470 14.196497 14.621909
709 1 1 26.000635 14.530348 14.670655
710 1 1 25.913183 14.665341 14.326375
711 1 1 25.831151 15.034440 14.288470
712 1 1 25.967327 15.318359 14.501182
713 1 1 25.898548 15.638119 14.694631
714 1 1 25.922496 15.952436 14.482426
715 1 1 25.748158 16.271175 14.371017
716 1 1 25.597132 16.619844 14.375582
717 1 1 25.625351 16.966720 14.528163
718 1 1 25.707142 16.941374 14.898390
719 1 1 26.024234 17.136783 14.973675
720 1 1 25.993220 17.455657 14.769328
721 1 1 25.826225 17.705891 14.537173
722 1 1 25.590383 17.877933 14.293904
723 1 1 25.379634 17.738269 14.010216
724 1 1 25.104253 17.802837 13.756453
725 1 1 25.009708 18.170880 13.758851
726 1 1 24.647657 18.283124 13.785692
727 1 1 24.481569 18.596766 13.921500
728 1 1 24.169609 18.680680 14.121598
729 1 1 23.983385 18.909399 14.361198
730 1 1 24.035678 19.134538 14.662824
731 1 1 24.186297 19.474369 14.583898
732 1 1 24.203792 19.697285 14.276649
733 1 1 24.113206 19.858713 13.944783
734 1 1 24.209638 20.172926 13.754070
735 1 1 23.933772 20.434202 13.759799
736 1 1 23.786549 20.726080 13.953532
737 1 1 23.615690 21.042458 14.076465
738 1 1 23.574801 21.337790 13.840865
739 1 1 23.416387 21.657693 13.710610
740 1 1 23.574217 21.856732 13.427991
741 1 1 23.653580 21.994083 13.082685
742 1 1 23.594341 22.369396 13.077127
743 1 1 23.819743 22.510177 12.805512
744 1 1 24.001029 22.651315 12.502832
745 1 1 24.364605 22.760531 12.485957
746 1 1 24.616531 22.610304 12.244368
747 1 1 24.620030 22.686562 11.872115
748 1 1 24.747553 23.025053 11.755663
749 1 1 24.945844 23.066961 11.434222
750 1 1 25.211891 22.795770 11.425582
751 1 1 25.524244 22.602155 11.328894
752 1 1 25.823145 22.548800 11.557392
753 1 1 26.038797 22.857423 11.505952
754 1 1 26.187793 23.162668 11.335582
755 1 1 26.543423 23.175006 11.202258
756 1 1 26.792519 23.025592 10.957255
757 1 1 27.041419 23.222075 10.747867
758 1 1 26.883245 23.248409 10.403356
759 1 1 27.081359 23.077258 10.127932
760 1 1 27.294850 22.899697 9.868523
761 1 1 27.247816 22.964516 9.497058
762 1 1 27.476303 22.824333 9.227721
763 1 1 27.580995 23.033505 8.928244
764 1 1 27.825514 23.298941 9.047217
765 1 1 27.983813 23.630459 8.950075
766 1 1 27.748870 23.849118 8.746630
767 1 1 27.770951 24.225770 8.701397
768 1 1 27.941206 24.434795 8.969206
769 1 1 27.921826 24.366663 9.342546
770 1 1 27.806767 24.540661 9.660172
771 1 1 27.996256 24.835340 9.807339
772 1 1 28.081541 24.845624 10.177502
773 1 1 28.258841 24.527035 10.284579
774 1 1 28.483194 24.583885 10.585965
775 1 1 28.332030 24.868594 10.787188
776 1 1 28.304851 25.239331 10.866027
777 1 1 28.235307 25.302601 11.234212
778 1 1 28.122449 25.608665 11.429117
779 1 1 28.372387 25.885188 11.503047
780 1 1 28.443260 26.086987 11.817139
781 1 1 28.455954 26.458955 11.893812
782 1 1 28.696131 26.509988 12.183830
783 1 1 29.030243 26.370888 12.299677
784 1 1 29.308800 26.154421 12.158439
785 1 1 29.372590 26.142282 11.784029
786 1 1 29.386182 26.298012 11.437671
787 1 1 29.239924 26.645132 11.387515
788 1 1 29.325641 26.833121 11.706439
789 1 1 29.553805 27.083754 11.878265
790 1 1 29.630102 27.407523 11.694545
791 1 1 29.698489 27.542041 11.345793
792 1 1 29.402525 27.517706 11.108700
793 1 1 29.172956 27.401884 10.828908
794 1 1 28.904433 27.281272 10.588599
795 1 1 28.732237 27.516853 10.345186
796 1 1 28.488560 27.799316 10.272824
797 1 1 28.141301 27.924079 10.363627
798 1 1 27.792525 27.988045 10.500243
799 1 1 27.422538 28.072171 10.479449
800 1 1 27.372031 28.448532 10.493645
801 1 1 27.491502 28.778996 10.638282
802 1 1 27.346880 29.125172 10.577895
803 1 1 27.279277 29.486114 10.675623